
.Version 7.4.3 of ABINIT 
.(sequential version, prepared for a x86_64_linux_gnu4.7 computer) 

.Copyright (C) 1998-2013 ABINIT group . 
 ABINIT comes with ABSOLUTELY NO WARRANTY.
 It is free software, and you are welcome to redistribute it
 under certain conditions (GNU General Public License,
 see ~abinit/COPYING or http://www.gnu.org/copyleft/gpl.txt).

 ABINIT is a project of the Universite Catholique de Louvain,
 Corning Inc. and other collaborators, see ~abinit/doc/developers/contributors.txt .
 Please read ~abinit/doc/users/acknowledgments.html for suggested
 acknowledgments of the ABINIT effort.
 For more information, see http://www.abinit.org .

.Starting date : Tue 31 Mar 2015.
- ( at 15h52 )
  
- input  file    -> in_PdHH_md.txt
- output file    -> out_PdHH_md.txtB
- root for input  files -> iPdHH
- root for output files -> oPdHH


 Symmetries : space group P1 (#  1); Bravais aP (primitive triclinic)
================================================================================
 Values of the parameters that define the memory need of the present run
   intxc =         0  ionmov =         9    iscf =         7 xclevel =         2
  lmnmax =         4   lnmax =         4   mband =        24  mffmem =         1
P  mgfft =        45   mkmem =        28 mpssoang=         4     mpw =      5532
  mqgrid =      3001   natom =         6    nfft =     91125    nkpt =        28
  nloalg =         4  nspden =         1 nspinor =         1  nsppol =         1
    nsym =         1  n1xccc =         0  ntypat =         2  occopt =         3
================================================================================
P This job should need less than                      85.739 Mbytes of memory.
  Rough estimation (10% accuracy) of disk space for files :
_ WF disk file :     56.727 Mbytes ; DEN or POT disk file :      0.697 Mbytes.
================================================================================

--------------------------------------------------------------------------------
------------- Echo of variables that govern the present computation ------------
--------------------------------------------------------------------------------
-
- outvars: echo of selected default values                                      
-   accesswff0 =  0 , fftalg0 =112 , wfoptalg0 =  0
-
- outvars: echo of global parameters not present in the input file              
-  max_nthreads =    0
-
 -outvars: echo values of preprocessed input variables --------
            acell      7.6962876214E+00  7.6962876214E+00  7.6962876214E+00 Bohr
              amu      1.06000000E+02  2.00000000E+00
      chksymbreak           0
            dtion      2.50000000E+01
             ecut      4.00000000E+01 Hartree
           ionmov           9
           istwfk        2    0    0    0    0    0    0    0    0    0
                         0    0    0    0    0    0    0    0    0    0
                         0    0    0    0    0    0    0    9
              ixc          11
              kpt      0.00000000E+00  0.00000000E+00  0.00000000E+00
                       0.00000000E+00  0.00000000E+00  3.33333333E-01
                       0.00000000E+00  3.33333333E-01  0.00000000E+00
                       3.33333333E-01  0.00000000E+00  0.00000000E+00
                       1.66666667E-01  1.66666667E-01  1.66666667E-01
                       0.00000000E+00  3.33333333E-01  3.33333333E-01
                       3.33333333E-01  0.00000000E+00  3.33333333E-01
                       1.66666667E-01  1.66666667E-01  5.00000000E-01
                       0.00000000E+00  3.33333333E-01 -3.33333333E-01
                       3.33333333E-01  0.00000000E+00 -3.33333333E-01
                       1.66666667E-01  1.66666667E-01 -1.66666667E-01
                       3.33333333E-01  3.33333333E-01  0.00000000E+00
                       1.66666667E-01  5.00000000E-01  1.66666667E-01
                       5.00000000E-01  1.66666667E-01  1.66666667E-01
                       3.33333333E-01  3.33333333E-01  3.33333333E-01
                       1.66666667E-01  5.00000000E-01  5.00000000E-01
                       5.00000000E-01  1.66666667E-01  5.00000000E-01
                       3.33333333E-01  3.33333333E-01 -3.33333333E-01
                       1.66666667E-01  5.00000000E-01 -1.66666667E-01
                       5.00000000E-01  1.66666667E-01 -1.66666667E-01
                       3.33333333E-01 -3.33333333E-01  0.00000000E+00
                       1.66666667E-01 -1.66666667E-01  1.66666667E-01
                       5.00000000E-01  5.00000000E-01  1.66666667E-01
                       3.33333333E-01 -3.33333333E-01  3.33333333E-01
                       1.66666667E-01 -1.66666667E-01  5.00000000E-01
                      -1.66666667E-01  1.66666667E-01  1.66666667E-01
                      -3.33333333E-01  3.33333333E-01  3.33333333E-01
                       5.00000000E-01  5.00000000E-01  5.00000000E-01
         kptrlatt        0    3    3      3    0    3      3    3    0
          kptrlen      3.26525830E+01
P           mkmem          28
            natom           6
            nband          24
            ngfft          45      45      45
             nkpt          28
            nline           6
            nstep         500
             nsym           1
            ntime         800
           ntypat           2
              occ      2.000000  2.000000  2.000000  2.000000  2.000000  2.000000
                       2.000000  2.000000  2.000000  2.000000  2.000000  2.000000
                       2.000000  2.000000  2.000000  2.000000  2.000000  2.000000
                       2.000000  2.000000  2.000000  0.000000  0.000000  0.000000
                       2.000000  2.000000  2.000000  2.000000  2.000000  2.000000
                       2.000000  2.000000  2.000000  2.000000  2.000000  2.000000
                       2.000000  2.000000  2.000000  2.000000  2.000000  2.000000
                       2.000000  2.000000  2.000000  0.000000  0.000000  0.000000
                       2.000000  2.000000  2.000000  2.000000  2.000000  2.000000
                       2.000000  2.000000  2.000000  2.000000  2.000000  2.000000
                       2.000000  2.000000  2.000000  2.000000  2.000000  2.000000
                       2.000000  2.000000  2.000000  0.000000  0.000000  0.000000
                       2.000000  2.000000  2.000000  2.000000  2.000000  2.000000
                       2.000000  2.000000  2.000000  2.000000  2.000000  2.000000
                       2.000000  2.000000  2.000000  2.000000  2.000000  2.000000
                       2.000000  2.000000  2.000000  0.000000  0.000000  0.000000
                       2.000000  2.000000  2.000000  2.000000  2.000000  2.000000
                       2.000000  2.000000  2.000000  2.000000  2.000000  2.000000
                       2.000000  2.000000  2.000000  2.000000  2.000000  2.000000
                       2.000000  2.000000  2.000000  0.000000  0.000000  0.000000
                       2.000000  2.000000  2.000000  2.000000  2.000000  2.000000
                       2.000000  2.000000  2.000000  2.000000  2.000000  2.000000
                       2.000000  2.000000  2.000000  2.000000  2.000000  2.000000
                       2.000000  2.000000  2.000000  0.000000  0.000000  0.000000
                       2.000000  2.000000  2.000000  2.000000  2.000000  2.000000
                       2.000000  2.000000  2.000000  2.000000  2.000000  2.000000
                       2.000000  2.000000  2.000000  2.000000  2.000000  2.000000
                       2.000000  2.000000  2.000000  0.000000  0.000000  0.000000
                       2.000000  2.000000  2.000000  2.000000  2.000000  2.000000
                       2.000000  2.000000  2.000000  2.000000  2.000000  2.000000
                       2.000000  2.000000  2.000000  2.000000  2.000000  2.000000
                       2.000000  2.000000  2.000000  0.000000  0.000000  0.000000
                       2.000000  2.000000  2.000000  2.000000  2.000000  2.000000
                       2.000000  2.000000  2.000000  2.000000  2.000000  2.000000
                       2.000000  2.000000  2.000000  2.000000  2.000000  2.000000
                       2.000000  2.000000  2.000000  0.000000  0.000000  0.000000
                       2.000000  2.000000  2.000000  2.000000  2.000000  2.000000
                       2.000000  2.000000  2.000000  2.000000  2.000000  2.000000
                       2.000000  2.000000  2.000000  2.000000  2.000000  2.000000
                       2.000000  2.000000  2.000000  0.000000  0.000000  0.000000
                       2.000000  2.000000  2.000000  2.000000  2.000000  2.000000
                       2.000000  2.000000  2.000000  2.000000  2.000000  2.000000
                       2.000000  2.000000  2.000000  2.000000  2.000000  2.000000
                       2.000000  2.000000  2.000000  0.000000  0.000000  0.000000
                       2.000000  2.000000  2.000000  2.000000  2.000000  2.000000
                       2.000000  2.000000  2.000000  2.000000  2.000000  2.000000
                       2.000000  2.000000  2.000000  2.000000  2.000000  2.000000
                       2.000000  2.000000  2.000000  0.000000  0.000000  0.000000
                       2.000000  2.000000  2.000000  2.000000  2.000000  2.000000
                       2.000000  2.000000  2.000000  2.000000  2.000000  2.000000
                       2.000000  2.000000  2.000000  2.000000  2.000000  2.000000
                       2.000000  2.000000  2.000000  0.000000  0.000000  0.000000
                       2.000000  2.000000  2.000000  2.000000  2.000000  2.000000
                       2.000000  2.000000  2.000000  2.000000  2.000000  2.000000
                       2.000000  2.000000  2.000000  2.000000  2.000000  2.000000
                       2.000000  2.000000  2.000000  0.000000  0.000000  0.000000
                       2.000000  2.000000  2.000000  2.000000  2.000000  2.000000
                       2.000000  2.000000  2.000000  2.000000  2.000000  2.000000
                       2.000000  2.000000  2.000000  2.000000  2.000000  2.000000
                       2.000000  2.000000  2.000000  0.000000  0.000000  0.000000
                       2.000000  2.000000  2.000000  2.000000  2.000000  2.000000
                       2.000000  2.000000  2.000000  2.000000  2.000000  2.000000
                       2.000000  2.000000  2.000000  2.000000  2.000000  2.000000
                       2.000000  2.000000  2.000000  0.000000  0.000000  0.000000
                       2.000000  2.000000  2.000000  2.000000  2.000000  2.000000
                       2.000000  2.000000  2.000000  2.000000  2.000000  2.000000
                       2.000000  2.000000  2.000000  2.000000  2.000000  2.000000
                       2.000000  2.000000  2.000000  0.000000  0.000000  0.000000
                       2.000000  2.000000  2.000000  2.000000  2.000000  2.000000
                       2.000000  2.000000  2.000000  2.000000  2.000000  2.000000
                       2.000000  2.000000  2.000000  2.000000  2.000000  2.000000
                       2.000000  2.000000  2.000000  0.000000  0.000000  0.000000
                       2.000000  2.000000  2.000000  2.000000  2.000000  2.000000
                       2.000000  2.000000  2.000000  2.000000  2.000000  2.000000
                       2.000000  2.000000  2.000000  2.000000  2.000000  2.000000
                       2.000000  2.000000  2.000000  0.000000  0.000000  0.000000
                       2.000000  2.000000  2.000000  2.000000  2.000000  2.000000
                       2.000000  2.000000  2.000000  2.000000  2.000000  2.000000
                       2.000000  2.000000  2.000000  2.000000  2.000000  2.000000
                       2.000000  2.000000  2.000000  0.000000  0.000000  0.000000
                       2.000000  2.000000  2.000000  2.000000  2.000000  2.000000
                       2.000000  2.000000  2.000000  2.000000  2.000000  2.000000
                       2.000000  2.000000  2.000000  2.000000  2.000000  2.000000
                       2.000000  2.000000  2.000000  0.000000  0.000000  0.000000
                       2.000000  2.000000  2.000000  2.000000  2.000000  2.000000
                       2.000000  2.000000  2.000000  2.000000  2.000000  2.000000
                       2.000000  2.000000  2.000000  2.000000  2.000000  2.000000
                       2.000000  2.000000  2.000000  0.000000  0.000000  0.000000
                       2.000000  2.000000  2.000000  2.000000  2.000000  2.000000
                       2.000000  2.000000  2.000000  2.000000  2.000000  2.000000
                       2.000000  2.000000  2.000000  2.000000  2.000000  2.000000
                       2.000000  2.000000  2.000000  0.000000  0.000000  0.000000
                       2.000000  2.000000  2.000000  2.000000  2.000000  2.000000
                       2.000000  2.000000  2.000000  2.000000  2.000000  2.000000
                       2.000000  2.000000  2.000000  2.000000  2.000000  2.000000
                       2.000000  2.000000  2.000000  0.000000  0.000000  0.000000
                       2.000000  2.000000  2.000000  2.000000  2.000000  2.000000
                       2.000000  2.000000  2.000000  2.000000  2.000000  2.000000
                       2.000000  2.000000  2.000000  2.000000  2.000000  2.000000
                       2.000000  2.000000  2.000000  0.000000  0.000000  0.000000
                       2.000000  2.000000  2.000000  2.000000  2.000000  2.000000
                       2.000000  2.000000  2.000000  2.000000  2.000000  2.000000
                       2.000000  2.000000  2.000000  2.000000  2.000000  2.000000
                       2.000000  2.000000  2.000000  0.000000  0.000000  0.000000
                       2.000000  2.000000  2.000000  2.000000  2.000000  2.000000
                       2.000000  2.000000  2.000000  2.000000  2.000000  2.000000
                       2.000000  2.000000  2.000000  2.000000  2.000000  2.000000
                       2.000000  2.000000  2.000000  0.000000  0.000000  0.000000
                       2.000000  2.000000  2.000000  2.000000  2.000000  2.000000
                       2.000000  2.000000  2.000000  2.000000  2.000000  2.000000
                       2.000000  2.000000  2.000000  2.000000  2.000000  2.000000
                       2.000000  2.000000  2.000000  0.000000  0.000000  0.000000
           occopt           3
        optforces           1
           prtcml           1
           prtden           0
          spgroup           1
           toldff      5.00000000E-05
           tolmxf      0.00000000E+00
           tsmear      1.00000000E-03 Hartree
            typat      1  1  1  1  2  2
              wtk        0.01852    0.03704    0.03704    0.03704    0.03704    0.03704
                         0.03704    0.03704    0.03704    0.03704    0.03704    0.03704
                         0.03704    0.03704    0.03704    0.03704    0.03704    0.03704
                         0.03704    0.03704    0.03704    0.03704    0.03704    0.03704
                         0.03704    0.03704    0.03704    0.01852
           xangst      0.0000000000E+00  0.0000000000E+00  0.0000000000E+00
                       2.0363500000E+00  1.2469047547E-16  2.0363500000E+00
                       2.4937683290E-16  2.0363500000E+00  2.0363500000E+00
                       2.0363500000E+00  2.0363500000E+00  0.0000000000E+00
                       2.0363500000E+00  0.0000000000E+00  0.0000000000E+00
                       1.2468635743E-16  2.0363500000E+00  0.0000000000E+00
            xcart      0.0000000000E+00  0.0000000000E+00  0.0000000000E+00
                       3.8481438107E+00  2.3563085002E-16  3.8481438107E+00
                       4.7125391807E-16  3.8481438107E+00  3.8481438107E+00
                       3.8481438107E+00  3.8481438107E+00  0.0000000000E+00
                       3.8481438107E+00  0.0000000000E+00  0.0000000000E+00
                       2.3562306805E-16  3.8481438107E+00  0.0000000000E+00
             xred      0.0000000000E+00  0.0000000000E+00  0.0000000000E+00
                       5.0000000000E-01 -6.1629758220E-33  5.0000000000E-01
                      -1.2325951644E-32  5.0000000000E-01  5.0000000000E-01
                       5.0000000000E-01  5.0000000000E-01  0.0000000000E+00
                       5.0000000000E-01  0.0000000000E+00  0.0000000000E+00
                       0.0000000000E+00  5.0000000000E-01  0.0000000000E+00
            znucl       46.00000    1.00000

================================================================================

 chkinp: Checking input parameters for consistency.

================================================================================
== DATASET  1 ==================================================================
-   nproc =    1

 Exchange-correlation functional for the present dataset will be:
  GGA: Perdew-Burke-Ernzerhof functional - ixc=11
 Citation for XC functional:
  J.P.Perdew, K.Burke, M.Ernzerhof, PRL 77, 3865 (1996)

 Real(R)+Recip(G) space primitive vectors, cartesian coordinates (Bohr,Bohr^-1):
 R(1)=  7.6962876  0.0000000  0.0000000  G(1)=  0.1299328  0.0000000  0.0000000
 R(2)=  0.0000000  7.6962876  0.0000000  G(2)=  0.0000000  0.1299328  0.0000000
 R(3)=  0.0000000  0.0000000  7.6962876  G(3)=  0.0000000  0.0000000  0.1299328
 Unit cell volume ucvol=  4.5587300E+02 bohr^3
 Angles (23,13,12)=  9.00000000E+01  9.00000000E+01  9.00000000E+01 degrees

 getcut: wavevector=  0.0000  0.0000  0.0000  ngfft=  45  45  45
         ecut(hartree)=     40.000   => boxcut(ratio)=   2.00806

--- Pseudopotential description ------------------------------------------------
- pspini: atom type   1  psp file is ../../46-Pd.GGA.fhi
- pspatm: opening atomic psp file    ../../46-Pd.GGA.fhi
- palladium, fhi98PP : Trouiller-Martins-type, GGA Perdew/Burke/Ernzerhof (1996), l= 1 local
- 46.00000  10.00000     11001                znucl, zion, pspdat
    6   11    3    1       545   0.00000      pspcod,pspxc,lmax,lloc,mmax,r2well
    0.00000000000000    0.00000000000000    0.00000000000000   rchrg,fchrg,qchrg
  1.024700          amesh (Hamman grid)
 pspatm: epsatm=   86.15351388
         --- l  ekb(1:nproj) -->
             0   -0.441162
             2   -5.439492
             3   -2.195524
 pspatm: atomic psp has been read  and splines computed

- pspini: atom type   2  psp file is ../../01-H.GGA.fhi
- pspatm: opening atomic psp file    ../../01-H.GGA.fhi
- hydrogen, fhi98PP : Trouiller-Martins-type, GGA Perdew/Burke/Ernzerhof (1996), l= 2 local
-  1.00000   1.00000     21003                znucl, zion, pspdat
    6   11    3    2       387   0.00000      pspcod,pspxc,lmax,lloc,mmax,r2well
    0.00000000000000    0.00000000000000    0.00000000000000   rchrg,fchrg,qchrg
  1.024700          amesh (Hamman grid)
 pspatm: epsatm=    0.06052049
         --- l  ekb(1:nproj) -->
             0   -6.173171
             1  -23.886063
             3   -5.121104
 pspatm: atomic psp has been read  and splines computed

   1.44788741E+04                                ecore*ucvol(ha*bohr**3)
--------------------------------------------------------------------------------

P newkpt: treating     24 bands with npw=    2749 for ikpt=   1 by node    0
P newkpt: treating     24 bands with npw=    5522 for ikpt=   2 by node    0
P newkpt: treating     24 bands with npw=    5522 for ikpt=   3 by node    0
P newkpt: treating     24 bands with npw=    5522 for ikpt=   4 by node    0
P newkpt: treating     24 bands with npw=    5497 for ikpt=   5 by node    0
P newkpt: treating     24 bands with npw=    5492 for ikpt=   6 by node    0
P newkpt: treating     24 bands with npw=    5492 for ikpt=   7 by node    0
P newkpt: treating     24 bands with npw=    5500 for ikpt=   8 by node    0
P newkpt: treating     24 bands with npw=    5492 for ikpt=   9 by node    0
P newkpt: treating     24 bands with npw=    5492 for ikpt=  10 by node    0
P newkpt: treating     24 bands with npw=    5497 for ikpt=  11 by node    0
P newkpt: treating     24 bands with npw=    5492 for ikpt=  12 by node    0
P newkpt: treating     24 bands with npw=    5500 for ikpt=  13 by node    0
P newkpt: treating     24 bands with npw=    5500 for ikpt=  14 by node    0
P newkpt: treating     24 bands with npw=    5532 for ikpt=  15 by node    0
P newkpt: treating     24 bands with npw=    5524 for ikpt=  16 by node    0
P newkpt: treating     24 bands with npw=    5524 for ikpt=  17 by node    0
P newkpt: treating     24 bands with npw=    5532 for ikpt=  18 by node    0
P newkpt: treating     24 bands with npw=    5500 for ikpt=  19 by node    0
P newkpt: treating     24 bands with npw=    5500 for ikpt=  20 by node    0
P newkpt: treating     24 bands with npw=    5492 for ikpt=  21 by node    0
P newkpt: treating     24 bands with npw=    5497 for ikpt=  22 by node    0
P newkpt: treating     24 bands with npw=    5524 for ikpt=  23 by node    0
P newkpt: treating     24 bands with npw=    5532 for ikpt=  24 by node    0
P newkpt: treating     24 bands with npw=    5500 for ikpt=  25 by node    0
P newkpt: treating     24 bands with npw=    5497 for ikpt=  26 by node    0
P newkpt: treating     24 bands with npw=    5532 for ikpt=  27 by node    0
P newkpt: treating     24 bands with npw=    2760 for ikpt=  28 by node    0

_setup2: Arith. and geom. avg. npw (full set) are    5507.944    5507.924

================================================================================

=== [ionmov= 9] Langevin molecular dynamics                                 
================================================================================

--- Iteration: (  1/800) Internal Cycle: (1/3)
--------------------------------------------------------------------------------

---SELF-CONSISTENT-FIELD CONVERGENCE--------------------------------------------

     iter   Etot(hartree)      deltaE(h)  residm     vres2    diffor    maxfor
 ETOT  1  -112.12054641573    -1.121E+02 2.449E-01 1.317E+04 4.550E-03 4.550E-03
 ETOT  2  -114.35347226426    -2.233E+00 4.635E-03 3.592E+03 7.309E-03 2.844E-03
 ETOT  3  -115.46348572445    -1.110E+00 1.173E-02 1.396E+02 2.569E-03 4.702E-04
 ETOT  4  -115.48304915755    -1.956E-02 1.276E-03 1.114E+02 6.266E-04 3.514E-04
 ETOT  5  -115.49301171261    -9.963E-03 2.123E-04 4.518E+01 1.978E-04 1.537E-04
 ETOT  6  -115.49962325358    -6.612E-03 3.909E-05 9.128E+00 2.897E-04 1.360E-04
 ETOT  7  -115.50112233636    -1.499E-03 9.174E-06 3.597E-01 7.027E-05 6.571E-05
 ETOT  8  -115.50107574095     4.660E-05 6.393E-07 6.271E-01 6.729E-05 2.985E-06
 ETOT  9  -115.50118170333    -1.060E-04 3.116E-07 5.194E-03 3.267E-05 3.425E-05
 ETOT 10  -115.50118257489    -8.716E-07 1.228E-08 3.400E-05 4.158E-05 7.331E-06

 At SCF step   10, forces are converged : 
  for the second time, max diff in force=  4.158E-05 < toldff=  5.000E-05

 Cartesian components of stress tensor (hartree/bohr^3)
  sigma(1 1)= -6.68226162E-06  sigma(3 2)= -1.55735445E-09
  sigma(2 2)= -6.49596063E-06  sigma(3 1)= -1.27195868E-10
  sigma(3 3)=  3.26163075E-05  sigma(2 1)=  1.75163205E-09

 prt_cml2 : about to open file oPdHH_TIMA.cml

---OUTPUT-----------------------------------------------------------------------

 Cartesian coordinates (xcart) [bohr]
  0.00000000000000E+00  0.00000000000000E+00  0.00000000000000E+00
  3.84814381070168E+00  2.35630850021725E-16  3.84814381070168E+00
  4.71253918072102E-16  3.84814381070168E+00  3.84814381070168E+00
  3.84814381070168E+00  3.84814381070168E+00  0.00000000000000E+00
  3.84814381070168E+00  0.00000000000000E+00  0.00000000000000E+00
  2.35623068050377E-16  3.84814381070168E+00  0.00000000000000E+00
 Reduced coordinates (xred)
  0.00000000000000E+00  0.00000000000000E+00  0.00000000000000E+00
  5.00000000000000E-01 -6.16297582203915E-33  5.00000000000000E-01
 -1.23259516440783E-32  5.00000000000000E-01  5.00000000000000E-01
  5.00000000000000E-01  5.00000000000000E-01  0.00000000000000E+00
  5.00000000000000E-01  0.00000000000000E+00  0.00000000000000E+00
  0.00000000000000E+00  5.00000000000000E-01  0.00000000000000E+00
 Cartesian forces (fcart) [Ha/bohr]; max,rms= 7.33075E-06 2.68253E-06 (free atoms)
 -1.19755067090060E-06  2.12795876644540E-06  1.50627118032440E-07
  6.03015907204928E-07  2.08238134317383E-06  6.41292582449419E-08
  5.32983343797475E-06 -3.05510281900646E-06  2.93321713268326E-06
 -7.33074760805441E-06 -4.57308935640130E-07 -1.38886032693549E-06
 -7.63730553729411E-07  7.64048689916457E-07 -3.89754888867319E-07
  3.35917948750474E-06 -1.46197704488910E-06 -1.36935829315783E-06
 Reduced forces (fred)
  8.36096364556599E-06 -1.61794204946122E-05 -1.37938195961337E-06
 -5.49671462102023E-06 -1.58286435360717E-05 -7.13669552052959E-07
 -4.18756618717164E-05  2.37109122264723E-05 -2.27949950448110E-05
  5.55638113126118E-05  3.71754331896264E-06  1.04689562063992E-05
  5.02215924786558E-06 -5.68237625591513E-06  2.77955339091835E-06
 -2.67089422666445E-05  1.14497580517942E-05  1.03188629452440E-05
 Cartesian velocities (vel) [bohr*Ha/hbar]; max,rms= 0.00000E+00 0.00000E+00 (free atoms)
  0.00000000000000E+00  0.00000000000000E+00  0.00000000000000E+00
  0.00000000000000E+00  0.00000000000000E+00  0.00000000000000E+00
  0.00000000000000E+00  0.00000000000000E+00  0.00000000000000E+00
  0.00000000000000E+00  0.00000000000000E+00  0.00000000000000E+00
  0.00000000000000E+00  0.00000000000000E+00  0.00000000000000E+00
  0.00000000000000E+00  0.00000000000000E+00  0.00000000000000E+00
 Kinetic energy of ions (ekin) [Ha]=  0.00000000000000E+00
 Total energy (etotal) [Ha]= -1.15501182574891E+02
 Rescaling or initializing velocities to initial temperature
 ---  Scaling factor :  0.14866D+01 Asked T (K)  0.30000D+03
 ---  Effective temperature 0.30000D+03

--- Iteration: (  2/800) Internal Cycle: (1/1)
--------------------------------------------------------------------------------

---SELF-CONSISTENT-FIELD CONVERGENCE--------------------------------------------

     iter   Etot(hartree)      deltaE(h)  residm     vres2    diffor    maxfor
 ETOT  1  -115.50107248498    -1.155E+02 2.672E-06 8.529E-01 5.627E-03 5.620E-03
 ETOT  2  -115.50112771562    -5.523E-05 3.015E-07 3.232E-01 7.351E-03 1.731E-03
 ETOT  3  -115.50097845743     1.493E-04 1.107E-06 1.205E+00 1.900E-03 3.082E-04
 ETOT  4  -115.50118009486    -2.016E-04 6.585E-07 1.130E-02 1.653E-04 3.619E-04
 ETOT  5  -115.50118167338    -1.579E-06 1.133E-08 1.369E-03 2.714E-04 2.975E-04
 ETOT  6  -115.50118179518    -1.218E-07 1.109E-07 6.644E-04 1.247E-05 2.932E-04
 ETOT  7  -115.50118190115    -1.060E-07 6.748E-09 4.569E-05 1.500E-05 2.890E-04

 At SCF step    7, forces are converged : 
  for the second time, max diff in force=  1.500E-05 < toldff=  5.000E-05

 Cartesian components of stress tensor (hartree/bohr^3)
  sigma(1 1)= -6.80347395E-06  sigma(3 2)=  5.67368674E-09
  sigma(2 2)= -6.79257020E-06  sigma(3 1)=  1.29421510E-09
  sigma(3 3)=  3.24623030E-05  sigma(2 1)=  1.56194552E-09

 prt_cml2 : about to open file oPdHH_TIM2.cml

---OUTPUT-----------------------------------------------------------------------

 Cartesian coordinates (xcart) [bohr]
  1.75255604597822E-03  2.44698778617683E-03  3.18934151739078E-05
  3.84712955498547E+00 -1.92096780059473E-03  3.84685455237236E+00
  2.47640757288980E-03  3.84891394970560E+00  3.84925589870608E+00
  3.84891520886286E+00  3.84603212129790E+00  1.69886121119653E-03
  3.86682344951382E+00  1.44945379566199E-02  5.78696850948488E-03
 -1.60118937235102E-02  3.86442967727436E+00 -1.08923087424237E-02
 Reduced coordinates (xred)
  2.27714468610082E-04  3.17943910954128E-04  4.14399990525461E-06
  4.99868214941267E-01 -2.49596675058343E-04  4.99832483088894E-01
  3.21766505451596E-04  5.00100066297129E-01  5.00144496679322E-01
  5.00100229902926E-01  4.99725622337982E-01  2.20737749778477E-04
  5.02427097287814E-01  1.88331552426791E-03  7.51916871374626E-04
 -2.08046976817516E-03  5.02116067820464E-01 -1.41526788995415E-03
 Cartesian forces (fcart) [Ha/bohr]; max,rms= 2.89004E-04 1.07989E-04 (free atoms)
 -8.49691404115289E-05 -2.89003819616325E-04 -3.76392152701509E-06
  1.18300614297444E-04  8.13290546024106E-05  1.65898818265490E-04
 -7.51386086882242E-05 -4.25372235085771E-05 -2.35703414024149E-05
  4.29977289051374E-05  2.08102119343116E-04 -1.02570889861790E-04
 -2.04855335864821E-05  2.23856378111123E-05  3.20177539184674E-05
  1.92949394836534E-05  1.97242313682633E-05 -6.80114193927376E-05
 Reduced forces (fred)
  6.46477742317121E-04  2.22256810654644E-03  2.58707125050397E-05
 -9.17944754655248E-04 -6.27620209101938E-04 -1.27990253157340E-03
  5.70819142703237E-04  3.25690293832963E-04  1.78306616616397E-04
 -3.38392089954480E-04 -1.60330217799320E-03  7.86317559808359E-04
  1.50193357326072E-04 -1.73974720087850E-04 -2.49515353299100E-04
 -1.55968605137182E-04 -1.53491770626228E-04  5.20337935035139E-04
 Cartesian velocities (vel) [bohr*Ha/hbar]; max,rms= 7.87418E-04 3.30755E-04 (free atoms)
  7.90498637688276E-05  9.39122221435767E-05 -5.35139195201074E-06
 -4.01075386085613E-05 -7.17717666052709E-05 -6.14309712543801E-05
  9.76851322745951E-05  2.96683569961630E-05  4.56497796762717E-05
  2.49177106712450E-05 -9.19558296855307E-05  6.43336834647466E-05
  7.87417823846501E-04  5.34511973098954E-04  1.95764924488034E-04
 -5.48717984671865E-04  6.90568323105095E-04 -4.42484005317710E-04
 Kinetic energy of ions (ekin) [Ha]=  8.45731634793719E-03
 Total energy (etotal) [Ha]= -1.15501181901151E+02

 Difference of energy with previous step (new-old):
           Absolute (Ha)= 6.73740E-07
           Relative     = 5.83319E-09

--- Iteration: (  3/800) Internal Cycle: (1/1)
--------------------------------------------------------------------------------

---SELF-CONSISTENT-FIELD CONVERGENCE--------------------------------------------

     iter   Etot(hartree)      deltaE(h)  residm     vres2    diffor    maxfor
 ETOT  1  -115.50108141606    -1.155E+02 9.722E-06 7.664E-01 5.398E-03 5.483E-03
 ETOT  2  -115.50111844205    -3.703E-05 4.635E-06 3.632E-01 6.979E-03 1.508E-03
 ETOT  3  -115.50094407060     1.744E-04 1.368E-06 1.394E+00 1.811E-03 5.937E-04
 ETOT  4  -115.50117794813    -2.339E-04 3.635E-06 8.626E-03 2.412E-04 6.395E-04
 ETOT  5  -115.50117899761    -1.049E-06 6.506E-08 1.916E-03 2.473E-04 5.780E-04
 ETOT  6  -115.50117924661    -2.490E-07 2.423E-06 4.514E-04 1.421E-05 5.731E-04
 ETOT  7  -115.50117929918    -5.257E-08 4.623E-08 1.466E-04 1.016E-05 5.700E-04

 At SCF step    7, forces are converged : 
  for the second time, max diff in force=  1.016E-05 < toldff=  5.000E-05

 Cartesian components of stress tensor (hartree/bohr^3)
  sigma(1 1)= -6.98338257E-06  sigma(3 2)=  2.19614471E-08
  sigma(2 2)= -6.92393193E-06  sigma(3 1)=  3.20633528E-09
  sigma(3 3)=  3.24128624E-05  sigma(2 1)=  9.52364714E-09

 prt_cml2 : about to open file oPdHH_TIM3.cml

---OUTPUT-----------------------------------------------------------------------

 Cartesian coordinates (xcart) [bohr]
  3.76286832633681E-03  4.95584122968853E-03  1.72913487761845E-04
  3.84627771136953E+00 -3.67411596742864E-03  3.84536621103180E+00
  4.89950194270697E-03  3.84982104596381E+00  3.85060237554508E+00
  3.84938068833894E+00  3.84388982601081E+00  3.10008708613488E-03
  3.88660156434196E+00  2.60796940692448E-02  1.06097344301803E-02
 -3.05690420481254E-02  3.88225629326799E+00 -1.91688350373180E-02
 Reduced coordinates (xred)
  4.88919919763949E-04  6.43926198379898E-04  2.24671291235235E-05
  4.99757532537251E-01 -4.77388079573737E-04  4.99639098769886E-01
  6.36605878538244E-04  5.00217927830226E-01  5.00319448150114E-01
  5.00160710942484E-01  4.99447267968645E-01  4.02802914682339E-04
  5.04996922611537E-01  3.38860699497732E-03  1.37855222570875E-03
 -3.97192043123663E-03  5.04432329487198E-01 -2.49065991037153E-03
 Cartesian forces (fcart) [Ha/bohr]; max,rms= 5.70009E-04 2.17760E-04 (free atoms)
 -2.00059472788904E-04 -5.70009251718397E-04 -1.69015560735623E-05
  2.27285708520835E-04  1.70384515117497E-04  3.45212155998724E-04
 -1.48590801466597E-04 -1.00413666543751E-04 -7.56358611182746E-05
  1.20548540333667E-04  4.17947371630770E-04 -1.90042127342297E-04
 -4.06213625169122E-05  4.84485174837776E-05  5.93800180001212E-05
  4.14373879179122E-05  3.36425140301024E-05 -1.22012629464711E-04
 Reduced forces (fred)
  1.52440369364293E-03  4.38353263186257E-03  1.24169602859287E-04
 -1.76456773533759E-03 -1.31475075080072E-03 -2.66276167690307E-03
  1.12828599565498E-03  7.69389942617275E-04  5.76205707726635E-04
 -9.43087789075042E-04 -3.22006569890308E-03  1.45670923827756E-03
  2.97322139176654E-04 -3.76296241608860E-04 -4.62915331425168E-04
 -3.34225606022713E-04 -2.62344980505884E-04  9.33134655872004E-04
 Cartesian velocities (vel) [bohr*Ha/hbar]; max,rms= 8.31357E-04 3.21775E-04 (free atoms)
  8.93601131440424E-05  9.63868484369714E-05 -9.86325655449577E-07
 -3.36110545975564E-05 -6.50589812548289E-05 -6.93942917038777E-05
  9.55526041517083E-05  3.51466471680925E-05  5.50253330600953E-05
  1.26809632670696E-05 -9.31800650182788E-05  5.24282700144197E-05
  8.31356864486396E-04  4.18136699339154E-04  1.57196820936456E-04
 -4.90528168716056E-04  7.52198299942546E-04 -3.37852707416531E-04
 Kinetic energy of ions (ekin) [Ha]=  8.36812980337445E-03
 Total energy (etotal) [Ha]= -1.15501179299178E+02

 Difference of energy with previous step (new-old):
           Absolute (Ha)= 2.60197E-06
           Relative     = 2.25277E-08

--- Iteration: (  4/800) Internal Cycle: (1/1)
--------------------------------------------------------------------------------

---SELF-CONSISTENT-FIELD CONVERGENCE--------------------------------------------

     iter   Etot(hartree)      deltaE(h)  residm     vres2    diffor    maxfor
 ETOT  1  -115.50108973054    -1.155E+02 7.193E-06 6.451E-01 4.926E-03 5.126E-03
 ETOT  2  -115.50107787738     1.185E-05 4.750E-06 5.673E-01 6.276E-03 1.238E-03
 ETOT  3  -115.50087322364     2.047E-04 1.845E-06 1.779E+00 1.487E-03 7.868E-04
 ETOT  4  -115.50117156343    -2.983E-04 1.756E-06 1.233E-02 4.414E-04 9.222E-04
 ETOT  5  -115.50117178418    -2.207E-07 1.250E-07 1.046E-02 1.669E-04 8.749E-04
 ETOT  6  -115.50117336545    -1.581E-06 1.293E-06 1.041E-03 6.601E-05 8.485E-04
 ETOT  7  -115.50117352438    -1.589E-07 7.110E-08 1.056E-04 7.217E-06 8.448E-04
 ETOT  8  -115.50117354239    -1.801E-08 6.900E-07 8.881E-07 1.008E-05 8.414E-04

 At SCF step    8, forces are converged : 
  for the second time, max diff in force=  1.008E-05 < toldff=  5.000E-05

 Cartesian components of stress tensor (hartree/bohr^3)
  sigma(1 1)= -7.74317445E-06  sigma(3 2)=  4.83298201E-08
  sigma(2 2)= -7.56361349E-06  sigma(3 1)=  4.21431970E-09
  sigma(3 3)=  3.21311589E-05  sigma(2 1)=  1.84921997E-08

 prt_cml2 : about to open file oPdHH_TIM4.cml

---OUTPUT-----------------------------------------------------------------------

 Cartesian coordinates (xcart) [bohr]
  6.47263453176239E-03  7.28040435362087E-03  1.52791121105745E-04
  3.84506524017571E+00 -5.40980691287368E-03  3.84349797459440E+00
  7.12489919413631E-03  3.85071606188685E+00  3.85190201397738E+00
  3.84972778327655E+00  3.84139348965340E+00  4.50538295173675E-03
  3.90669506512151E+00  3.52706576502695E-02  1.38346389940397E-02
 -4.34734543262872E-02  3.89970847018429E+00 -2.53005697151692E-02
 Reduced coordinates (xred)
  8.41007359673254E-04  9.45963133364986E-04  1.98525742048457E-05
  4.99599992791666E-01 -7.02911218888085E-04  4.99396353627123E-01
  9.25757916624829E-04  5.00334219731864E-01  5.00488313776793E-01
  5.00205809950562E-01  4.99122912060939E-01  5.85396904763186E-04
  5.07607726906801E-01  4.58281438861275E-03  1.79757302151307E-03
 -5.64862651512501E-03  5.06699939245930E-01 -3.28737320637658E-03
 Cartesian forces (fcart) [Ha/bohr]; max,rms= 8.41421E-04 3.44185E-04 (free atoms)
 -3.91717204489712E-04 -8.41420849367724E-04 -3.83678873219198E-05
  4.00554747280782E-04  2.50285920682117E-04  5.64050474956619E-04
 -2.43334370200863E-04 -1.74959875681690E-04 -1.41831308349520E-04
  2.31315349771620E-04  6.56231137657879E-04 -2.97312722775882E-04
 -5.98524675911960E-05  6.87000552058670E-05  7.50516909277460E-05
  6.30339452293682E-05  4.11636115035515E-05 -1.61590247437043E-04
 Reduced forces (fred)
  2.99020859664194E-03  6.46916007447956E-03  2.86376241632534E-04
 -3.10734421855439E-03 -1.93292922605728E-03 -4.35000874287787E-03
  1.84821162587593E-03  1.33988473255130E-03  1.08266048815529E-03
 -1.80482913845087E-03 -5.05720037443574E-03  2.27929017336319E-03
  4.36082130069611E-04 -5.35392177370603E-04 -5.86533454475159E-04
 -5.09687047759961E-04 -3.23463786567001E-04  1.23473096646667E-03
 Cartesian velocities (vel) [bohr*Ha/hbar]; max,rms= 8.07447E-04 3.03063E-04 (free atoms)
  1.09753275662539E-04  9.94244405541851E-05  1.01873001892842E-05
 -4.24650537819563E-05 -6.77817978858872E-05 -7.28321398638022E-05
  8.82545325752650E-05  4.24161302541279E-05  6.01948311755053E-05
  7.58526587619046E-06 -9.35894360944303E-05  4.79271861568624E-05
  8.07446800460953E-04  2.96532814647030E-04  1.26141894894158E-04
 -5.49744439439215E-04  7.20583393291790E-04 -1.33846433592107E-04
 Kinetic energy of ions (ekin) [Ha]=  8.51738929543916E-03
 Total energy (etotal) [Ha]= -1.15501173542389E+02

 Difference of energy with previous step (new-old):
           Absolute (Ha)= 5.75679E-06
           Relative     = 4.98418E-08

--- Iteration: (  5/800) Internal Cycle: (1/1)
--------------------------------------------------------------------------------

---SELF-CONSISTENT-FIELD CONVERGENCE--------------------------------------------

     iter   Etot(hartree)      deltaE(h)  residm     vres2    diffor    maxfor
 ETOT  1  -115.50106845323    -1.155E+02 4.024E-06 7.411E-01 5.395E-03 5.626E-03
 ETOT  2  -115.50108860988    -2.016E-05 5.251E-07 4.441E-01 6.984E-03 1.814E-03
 ETOT  3  -115.50089499833     1.936E-04 1.603E-06 1.588E+00 1.700E-03 1.171E-03
 ETOT  4  -115.50116205108    -2.671E-04 8.192E-07 6.302E-03 3.850E-04 1.204E-03
 ETOT  5  -115.50116261537    -5.643E-07 1.184E-07 2.459E-03 2.311E-04 1.172E-03
 ETOT  6  -115.50116293476    -3.194E-07 4.320E-08 5.665E-04 1.890E-05 1.165E-03
 ETOT  7  -115.50116300837    -7.360E-08 9.635E-08 1.403E-04 9.562E-06 1.163E-03

 At SCF step    7, forces are converged : 
  for the second time, max diff in force=  9.562E-06 < toldff=  5.000E-05

 Cartesian components of stress tensor (hartree/bohr^3)
  sigma(1 1)= -8.33595600E-06  sigma(3 2)=  8.84644155E-08
  sigma(2 2)= -7.91578964E-06  sigma(3 1)=  7.60960327E-10
  sigma(3 3)=  3.21973091E-05  sigma(2 1)=  3.83428238E-08

 prt_cml2 : about to open file oPdHH_TIM5.cml

---OUTPUT-----------------------------------------------------------------------

 Cartesian coordinates (xcart) [bohr]
  9.07887135701619E-03  1.01338753038845E-02  2.92998945380489E-04
  3.84371801075228E+00 -6.98229343124536E-03  3.84149309605953E+00
  9.54930483394440E-03  3.85175647399877E+00  3.85346768494078E+00
  3.85037660738671E+00  3.83879535575889E+00  5.78526614930568E-03
  3.92635007632830E+00  4.37152285628494E-02  2.01052514614370E-02
 -5.87983459281526E-02  3.91457623428467E+00 -2.65473697908975E-02
 Reduced coordinates (xred)
  1.17964294002837E-03  1.31672252940525E-03  3.80701657466204E-05
  4.99424943535492E-01 -9.07228754266908E-04  4.99135854197593E-01
  1.24076766665884E-03  5.00469403363648E-01  5.00691745748209E-01
  5.00290113467020E-01  4.98785329316852E-01  7.51695678994229E-04
  5.10161557035515E-01  5.68004091235851E-03  2.61233109395813E-03
 -7.63983219190442E-03  5.08631749078379E-01 -3.44937339881494E-03
 Cartesian forces (fcart) [Ha/bohr]; max,rms= 1.16312E-03 4.80511E-04 (free atoms)
 -5.63662938711656E-04 -1.16311695798092E-03 -9.21613133291150E-05
  5.68677605747683E-04  3.14531272734082E-04  7.99853010665613E-04
 -3.27277060772822E-04 -2.19870977651304E-04 -2.12944235441273E-04
  3.21270977228333E-04  9.31220830422925E-04 -4.17913037520742E-04
 -8.34904225482079E-05  8.78725153371387E-05  1.06208245424599E-04
  8.44818390566693E-05  4.93633171380830E-05 -1.83042669799083E-04
 Reduced forces (fred)
  4.30453971756990E-03  8.94268604601202E-03  6.97657531362371E-04
 -4.41027879796566E-03 -2.42971974082846E-03 -6.16754126851274E-03
  2.48524601131469E-03  1.68319368366268E-03  1.62723763969110E-03
 -2.50616622543904E-03 -7.17593994991782E-03  3.20473649390919E-03
  6.08993925283049E-04 -6.85288751991702E-04 -8.29051648137089E-04
 -6.83768912445695E-04 -3.88910886582141E-04  1.39710659017853E-03
 Cartesian velocities (vel) [bohr*Ha/hbar]; max,rms= 7.58584E-04 2.87040E-04 (free atoms)
  1.23280008083133E-04  1.10734514530868E-04  5.78974396019535E-06
 -6.87769700926518E-05 -6.72681172978398E-05 -8.55303071870891E-05
  9.04395114977890E-05  4.22704742302114E-05  5.95870427678336E-05
  2.71557986437432E-05 -1.10598745058408E-04  5.49788925124121E-05
  7.58583614966903E-04  2.87284680405032E-04  2.22623860313813E-04
 -6.38643986485035E-04  5.40599340724825E-04  4.27113172733524E-05
 Kinetic energy of ions (ekin) [Ha]=  9.67746390061725E-03
 Total energy (etotal) [Ha]= -1.15501163008365E+02

 Difference of energy with previous step (new-old):
           Absolute (Ha)= 1.05340E-05
           Relative     = 9.12027E-08

--- Iteration: (  6/800) Internal Cycle: (1/1)
--------------------------------------------------------------------------------

---SELF-CONSISTENT-FIELD CONVERGENCE--------------------------------------------

     iter   Etot(hartree)      deltaE(h)  residm     vres2    diffor    maxfor
 ETOT  1  -115.50106280775    -1.155E+02 5.137E-06 6.537E-01 5.193E-03 5.515E-03
 ETOT  2  -115.50105762000     5.188E-06 1.846E-07 5.280E-01 6.653E-03 2.158E-03
 ETOT  3  -115.50087905510     1.786E-04 1.867E-06 1.584E+00 1.429E-03 1.487E-03
 ETOT  4  -115.50114438754    -2.653E-04 9.010E-07 1.198E-02 5.045E-04 1.504E-03
 ETOT  5  -115.50114482508    -4.375E-07 1.649E-07 9.419E-03 1.460E-04 1.479E-03
 ETOT  6  -115.50114635970    -1.535E-06 3.768E-08 1.311E-04 7.077E-05 1.483E-03
 ETOT  7  -115.50114633849     2.121E-08 1.043E-07 2.581E-04 1.133E-05 1.481E-03
 ETOT  8  -115.50114638233    -4.384E-08 2.929E-08 1.615E-06 6.587E-06 1.481E-03

 At SCF step    8, forces are converged : 
  for the second time, max diff in force=  6.587E-06 < toldff=  5.000E-05

 Cartesian components of stress tensor (hartree/bohr^3)
  sigma(1 1)= -9.53293792E-06  sigma(3 2)=  1.46463867E-07
  sigma(2 2)= -8.67624067E-06  sigma(3 1)= -1.38028417E-08
  sigma(3 3)=  3.17420562E-05  sigma(2 1)=  5.21017868E-08

 prt_cml2 : about to open file oPdHH_TIM6.cml

---OUTPUT-----------------------------------------------------------------------

 Cartesian coordinates (xcart) [bohr]
  1.24183435408623E-02  1.26247122679618E-02  8.99247372750365E-04
  3.84222231204355E+00 -8.11419419583109E-03  3.83923814533694E+00
  1.20511153324175E-02  3.85269488841735E+00  3.85502945411653E+00
  3.85095757404619E+00  3.83569021086610E+00  7.17725029897998E-03
  3.94414506220271E+00  4.90231403418060E-02  2.53278153294838E-02
 -7.46062310868638E-02  3.92535354619886E+00 -2.40216851196242E-02
 Reduced coordinates (xred)
  1.61354982450589E-03  1.64036388568074E-03  1.16841705636047E-04
  4.99230603253228E-01 -1.05429976048007E-03  4.98842862195018E-01
  1.56583484469874E-03  5.00591334152198E-01  5.00894670749531E-01
  5.00365600076677E-01  4.98381869227321E-01  9.32560040898168E-04
  5.12473708913119E-01  6.36971261384160E-03  3.29091330462328E-03
 -9.69379456133945E-03  5.10032075111441E-01 -3.12120418327661E-03
 Cartesian forces (fcart) [Ha/bohr]; max,rms= 1.48053E-03 6.40041E-04 (free atoms)
 -7.99981587133061E-04 -1.48052712137212E-03 -1.97395365426227E-04
  7.99603258542884E-04  3.18013133790015E-04  1.09931821854771E-03
 -4.42510139991264E-04 -2.55053260704579E-04 -2.71082099910867E-04
  4.46834331161540E-04  1.26869215024755E-03 -5.70875847382218E-04
 -1.10270831712708E-04  9.34088010054237E-05  1.23792030538829E-04
  1.06324969132608E-04  5.54662970337049E-05 -1.83756936367222E-04
 Reduced forces (fred)
  6.11286559857556E-03  1.13804771265618E-02  1.50314286902698E-03
 -6.19799944858463E-03 -2.46160597583813E-03 -8.47673783581718E-03
  3.36166252493300E-03  1.94887782235287E-03  2.07025717150276E-03
 -3.48298831956385E-03 -9.77830512212820E-03  4.37755607914064E-03
  8.04653249285132E-04 -7.32986429714521E-04 -9.68807710689658E-04
 -8.62330331608623E-04 -4.40970006071934E-04  1.39817759628478E-03
 Cartesian velocities (vel) [bohr*Ha/hbar]; max,rms= 6.95567E-04 2.73905E-04 (free atoms)
  1.28075084701456E-04  1.14347876019452E-04  1.96709498765005E-05
 -7.12520715043260E-05 -4.03936934324091E-05 -9.75610304349310E-05
  1.08794112955982E-04  3.67369309658363E-05  6.49027743906098E-05
  4.16063649094436E-05 -1.34541715397774E-04  5.89475077328668E-05
  6.90553082787014E-04  2.53566493014428E-04  3.33585158523606E-04
 -6.95566630983851E-04  3.05219647290973E-04  1.85001817413906E-04
 Kinetic energy of ions (ekin) [Ha]=  1.06892692294936E-02
 Total energy (etotal) [Ha]= -1.15501146382332E+02

 Difference of energy with previous step (new-old):
           Absolute (Ha)= 1.66260E-05
           Relative     = 1.43947E-07

--- Iteration: (  7/800) Internal Cycle: (1/1)
--------------------------------------------------------------------------------

---SELF-CONSISTENT-FIELD CONVERGENCE--------------------------------------------

     iter   Etot(hartree)      deltaE(h)  residm     vres2    diffor    maxfor
 ETOT  1  -115.50099986725    -1.155E+02 8.005E-06 1.038E+00 5.961E-03 6.408E-03
 ETOT  2  -115.50107724860    -7.738E-05 1.377E-07 2.913E-01 7.758E-03 2.957E-03
 ETOT  3  -115.50101622731     6.102E-05 5.089E-07 6.368E-01 1.998E-03 1.869E-03
 ETOT  4  -115.50111776884    -1.015E-04 3.502E-07 3.736E-02 1.547E-04 1.817E-03
 ETOT  5  -115.50112158076    -3.812E-06 7.824E-08 1.449E-02 1.921E-04 1.833E-03
 ETOT  6  -115.50112385689    -2.276E-06 2.875E-08 7.869E-04 6.968E-05 1.852E-03
 ETOT  7  -115.50112396260    -1.057E-07 4.417E-08 1.665E-04 1.032E-05 1.855E-03
 ETOT  8  -115.50112399084    -2.824E-08 1.569E-08 1.368E-06 1.332E-05 1.856E-03

 At SCF step    8, forces are converged : 
  for the second time, max diff in force=  1.332E-05 < toldff=  5.000E-05

 Cartesian components of stress tensor (hartree/bohr^3)
  sigma(1 1)= -1.08845737E-05  sigma(3 2)=  2.26391810E-07
  sigma(2 2)= -9.27126753E-06  sigma(3 1)= -3.18603725E-08
  sigma(3 3)=  3.14209537E-05  sigma(2 1)=  6.31204372E-08

 prt_cml2 : about to open file oPdHH_TIM7.cml

---OUTPUT-----------------------------------------------------------------------

 Cartesian coordinates (xcart) [bohr]
  1.55039621687344E-02  1.54048229116416E-02  1.35155185168313E-03
  3.84065990636145E+00 -9.12508085717055E-03  3.83713042013572E+00
  1.44833545641695E-02  3.85359935243040E+00  3.85624329095112E+00
  3.85186872148085E+00  3.83214663321069E+00  8.74567754478757E-03
  3.96311365543055E+00  5.41175330354464E-02  3.60326392018857E-02
 -9.22570476397941E-02  3.93153140377613E+00 -1.89499653830456E-02
 Reduced coordinates (xred)
  2.01447281227093E-03  2.00159137358651E-03  1.75610881267544E-04
  4.99027595548869E-01 -1.18564706856770E-03  4.98568999612835E-01
  1.88186243506426E-03  5.00708853670378E-01  5.01052387936610E-01
  5.00483987990367E-01  4.97921442352739E-01  1.13635014373240E-03
  5.14938350849719E-01  7.03164118827181E-03  4.68182076533613E-03
 -1.19872141190810E-02  5.10834781283712E-01 -2.46222156905178E-03
 Cartesian forces (fcart) [Ha/bohr]; max,rms= 1.85586E-03 8.07935E-04 (free atoms)
 -9.91485777813449E-04 -1.85585509518059E-03 -3.29995079875266E-04
  1.00670273296708E-03  2.78874803077760E-04  1.39039558301413E-03
 -5.27159700356552E-04 -2.51208781622018E-04 -2.79208908238323E-04
  5.21352579050495E-04  1.67150204553875E-03 -7.69998082375843E-04
 -1.45607427833639E-04  8.98970425972623E-05  1.66373426155768E-04
  1.36197593986061E-04  6.67899855888382E-05 -1.77566938680465E-04
 Reduced forces (fred)
  7.57596577403957E-03  1.42625596464843E-02  2.51897647407678E-03
 -7.80266772671105E-03 -2.16693564452107E-03 -1.07216448886968E-02
  4.00237873181328E-03  1.91274008671296E-03  2.12811148996891E-03
 -4.06727334507660E-03 -1.28849954519027E-02  5.90536613560228E-03
  1.06584269987687E-03 -7.12508445814478E-04 -1.30121831454435E-03
 -1.10300980120339E-03 -5.34669888993482E-04  1.34584565784571E-03
 Cartesian velocities (vel) [bohr*Ha/hbar]; max,rms= 7.11960E-04 2.74535E-04 (free atoms)
  1.33723624385595E-04  1.00103389779414E-04  3.65523722919104E-05
 -5.35472055406727E-05 -1.84433797391679E-05 -8.89767297653222E-05
  1.06922477711216E-04  3.14446630349336E-05  5.14371976459482E-05
  3.25287651218593E-05 -1.55350156869344E-04  6.34375633068637E-05
  7.11959549123418E-04  1.28807498498845E-04  4.14471649304133E-04
 -6.99704081980625E-04  1.37607438933378E-04  2.61184859040725E-04
 Kinetic energy of ions (ekin) [Ha]=  1.04966494933323E-02
 Total energy (etotal) [Ha]= -1.15501123990842E+02

 Difference of energy with previous step (new-old):
           Absolute (Ha)= 2.23915E-05
           Relative     = 1.93864E-07

--- Iteration: (  8/800) Internal Cycle: (1/1)
--------------------------------------------------------------------------------

---SELF-CONSISTENT-FIELD CONVERGENCE--------------------------------------------

     iter   Etot(hartree)      deltaE(h)  residm     vres2    diffor    maxfor
 ETOT  1  -115.50097687806    -1.155E+02 5.978E-06 1.001E+00 5.525E-03 6.047E-03
 ETOT  2  -115.50095628026     2.060E-05 4.604E-08 8.437E-01 7.113E-03 3.266E-03
 ETOT  3  -115.50069623224     2.600E-04 2.254E-06 2.360E+00 1.525E-03 2.349E-03
 ETOT  4  -115.50109328205    -3.970E-04 8.589E-07 2.040E-02 5.794E-04 2.188E-03
 ETOT  5  -115.50109335999    -7.794E-08 5.704E-08 1.978E-02 1.358E-04 2.194E-03
 ETOT  6  -115.50109604368    -2.684E-06 1.781E-08 3.591E-03 9.239E-05 2.217E-03
 ETOT  7  -115.50109664396    -6.003E-07 3.933E-09 2.979E-05 1.944E-05 2.224E-03
 ETOT  8  -115.50109664906    -5.099E-09 2.449E-09 1.510E-06 1.484E-05 2.228E-03

 At SCF step    8, forces are converged : 
  for the second time, max diff in force=  1.484E-05 < toldff=  5.000E-05

 Cartesian components of stress tensor (hartree/bohr^3)
  sigma(1 1)= -1.23755677E-05  sigma(3 2)=  3.19818961E-07
  sigma(2 2)= -9.77748530E-06  sigma(3 1)= -5.76492459E-08
  sigma(3 3)=  3.10677191E-05  sigma(2 1)=  7.53020652E-08

 prt_cml2 : about to open file oPdHH_TIM8.cml

---OUTPUT-----------------------------------------------------------------------

 Cartesian coordinates (xcart) [bohr]
  1.88949274546516E-02  1.81945839904143E-02  2.23360655110486E-03
  3.83966806237580E+00 -9.72250821799025E-03  3.83527587129503E+00
  1.73754938998401E-02  3.85421086623871E+00  3.85773749349208E+00
  3.85281568715726E+00  3.82891788730427E+00  1.03746043384987E-02
  3.98224484530518E+00  5.56358183035962E-02  4.65180936257335E-02
 -1.08547961389802E-01  3.93484008231302E+00 -1.20452763787573E-02
 Reduced coordinates (xred)
  2.45507033834142E-03  2.36407276929402E-03  2.90218695165863E-04
  4.98898722508459E-01 -1.26327246281080E-03  4.98328032937482E-01
  2.25764612168579E-03  5.00788309355819E-01  5.01246533817645E-01
  5.00607029867567E-01  4.97501922440639E-01  1.34800112065029E-03
  5.17424119419675E-01  7.22891620485611E-03  6.04422494507180E-03
 -1.41039377332950E-02  5.11264687064220E-01 -1.56507617325259E-03
 Cartesian forces (fcart) [Ha/bohr]; max,rms= 2.22768E-03 9.76632E-04 (free atoms)
 -1.18431761160072E-03 -2.22767551406263E-03 -4.76126694351520E-04
  1.20287900962478E-03  2.13791085157556E-04  1.68632161909022E-03
 -6.28417509561539E-04 -2.09157631811920E-04 -2.89606604239691E-04
  6.23420569643060E-04  2.06469005536309E-03 -9.60440607375600E-04
 -1.84067536530416E-04  8.21807381132902E-05  2.03736102669091E-04
  1.70503078424828E-04  7.61712672406194E-05 -1.63883815792503E-04
 Reduced forces (fred)
  9.05108119709474E-03  1.71185842536603E-02  3.63911835350429E-03
 -9.32147060869900E-03 -1.67164491198775E-03 -1.30037058331620E-02
  4.77271412303376E-03  1.58349006291286E-03  2.20360609283358E-03
 -4.86179178994996E-03 -1.59166957448488E-02  7.36653752718494E-03
  1.35286892602340E-03 -6.58733827182371E-04 -1.59330127545811E-03
 -1.37600850877001E-03 -6.12483210893850E-04  1.23600735237918E-03
 Cartesian velocities (vel) [bohr*Ha/hbar]; max,rms= 8.33438E-04 2.94613E-04 (free atoms)
  1.30988271850119E-04  1.08446992878648E-04  3.37034172576794E-05
 -3.09179152056016E-05 -2.39388674539572E-05 -6.09299312413591E-05
  1.04181029740924E-04  2.39021818882609E-05  4.34188006315288E-05
  3.27181595333975E-05 -1.36351227075379E-04  6.89466538478804E-05
  8.33438241311891E-04  1.09406254571822E-05  5.14025973326384E-04
 -6.62102581133657E-04  7.42417972756454E-05  2.94054532220770E-04
 Kinetic energy of ions (ekin) [Ha]=  9.76974900122515E-03
 Total energy (etotal) [Ha]= -1.15501096649062E+02

 Difference of energy with previous step (new-old):
           Absolute (Ha)= 2.73418E-05
           Relative     = 2.36723E-07

--- Iteration: (  9/800) Internal Cycle: (1/1)
--------------------------------------------------------------------------------

---SELF-CONSISTENT-FIELD CONVERGENCE--------------------------------------------

     iter   Etot(hartree)      deltaE(h)  residm     vres2    diffor    maxfor
 ETOT  1  -115.50094049128    -1.155E+02 2.334E-06 1.077E+00 5.181E-03 5.896E-03
 ETOT  2  -115.50089225824     4.823E-05 6.120E-08 1.060E+00 6.901E-03 3.687E-03
 ETOT  3  -115.50065172657     2.405E-04 2.635E-06 2.454E+00 1.607E-03 2.684E-03
 ETOT  4  -115.50106366646    -4.119E-04 9.490E-07 2.655E-02 6.285E-04 2.549E-03
 ETOT  5  -115.50106493666    -1.270E-06 6.765E-08 1.894E-02 1.139E-04 2.528E-03
 ETOT  6  -115.50106719810    -2.261E-06 1.513E-08 5.164E-03 1.015E-04 2.543E-03
 ETOT  7  -115.50106806481    -8.667E-07 1.738E-08 1.910E-05 2.473E-05 2.550E-03
 ETOT  8  -115.50106806810    -3.287E-09 7.538E-09 1.277E-06 1.467E-05 2.553E-03

 At SCF step    8, forces are converged : 
  for the second time, max diff in force=  1.467E-05 < toldff=  5.000E-05

 Cartesian components of stress tensor (hartree/bohr^3)
  sigma(1 1)= -1.40024199E-05  sigma(3 2)=  4.04458020E-07
  sigma(2 2)= -1.02511054E-05  sigma(3 1)= -8.23960216E-08
  sigma(3 3)=  3.06563054E-05  sigma(2 1)=  9.63229594E-08

 prt_cml2 : about to open file oPdHH_TIM9.cml

---OUTPUT-----------------------------------------------------------------------

 Cartesian coordinates (xcart) [bohr]
  2.21923626326661E-02  2.06510720437886E-02  3.09102728142392E-03
  3.83924323134034E+00 -1.05480276931899E-02  3.83409968025564E+00
  2.01590039063123E-02  3.85496035423492E+00  3.85873446908821E+00
  3.85351357532189E+00  3.82581021847867E+00  1.20657882410865E-02
  4.00066129328777E+00  5.53110944945931E-02  5.99440304005333E-02
 -1.24211630547371E-01  3.93890194842972E+00 -2.97926646309611E-03
 Reduced coordinates (xred)
  2.88351523804142E-03  2.68325107631867E-03  4.01625749124523E-04
  4.98843523033549E-01 -1.37053449819833E-03  4.98175207173003E-01
  2.61931529822894E-03  5.00885692410232E-01  5.01376073622440E-01
  5.00697708412725E-01  4.97098134409516E-01  1.56774133642453E-03
  5.19817019592919E-01  7.18672393957485E-03  7.78869415350709E-03
 -1.61391617176492E-02  5.11792456596300E-01 -3.87104355976871E-04
 Cartesian forces (fcart) [Ha/bohr]; max,rms= 2.55278E-03 1.12782E-03 (free atoms)
 -1.35721381332420E-03 -2.55278334308864E-03 -6.31672478094433E-04
  1.35295856143392E-03  1.85789752655030E-04  1.93111815688669E-03
 -7.15317280874274E-04 -2.08647334511886E-04 -2.43898514726826E-04
  7.36438191800302E-04  2.41590415604697E-03 -1.16550467665156E-03
 -2.27853953284814E-04  8.00860275106545E-05  2.50401723937776E-04
  2.10988294249062E-04  7.96507413878726E-05 -1.40444211351645E-04
 Reduced forces (fred)
  1.03757955733448E-02  1.96182258405595E-02  4.83222997830273E-03
 -1.04824705263755E-02 -1.45862037652072E-03 -1.48917438619510E-02
  5.43557523642872E-03  1.57708089486441E-03  1.84781002413409E-03
 -5.73755243722120E-03 -1.86222222536594E-02  8.94075611996452E-03
  1.68391726241387E-03 -6.45094105155843E-04 -1.95646678395701E-03
 -1.69353889502993E-03 -6.41744017957309E-04  1.05159594968677E-03
 Cartesian velocities (vel) [bohr*Ha/hbar]; max,rms= 7.89946E-04 2.87971E-04 (free atoms)
  1.33812394171676E-04  1.09746575506467E-04  3.30266448977211E-05
 -3.11979530342695E-06 -3.84744937016044E-05 -3.22528654378492E-05
  1.20103495974497E-04  2.29954091458247E-05  4.82099278374433E-05
  3.32653885195692E-05 -9.81064324117911E-05  6.93668645450930E-05
  7.89945965165229E-04 -8.10650401329757E-05  5.41983998641774E-04
 -5.78479234322432E-04  1.57214347210440E-04  3.77643097757253E-04
 Kinetic energy of ions (ekin) [Ha]=  9.01433968453609E-03
 Total energy (etotal) [Ha]= -1.15501068068098E+02

 Difference of energy with previous step (new-old):
           Absolute (Ha)= 2.85810E-05
           Relative     = 2.47452E-07

--- Iteration: ( 10/800) Internal Cycle: (1/1)
--------------------------------------------------------------------------------

---SELF-CONSISTENT-FIELD CONVERGENCE--------------------------------------------

     iter   Etot(hartree)      deltaE(h)  residm     vres2    diffor    maxfor
 ETOT  1  -115.50091514912    -1.155E+02 9.833E-07 1.009E+00 5.155E-03 5.535E-03
 ETOT  2  -115.50077625189     1.389E-04 8.579E-08 1.560E+00 7.235E-03 4.011E-03
 ETOT  3  -115.50065225969     1.240E-04 2.768E-06 2.275E+00 1.452E-03 3.165E-03
 ETOT  4  -115.50103143264    -3.792E-04 7.758E-07 3.347E-02 7.790E-04 2.893E-03
 ETOT  5  -115.50103476136    -3.329E-06 6.662E-08 1.389E-02 7.821E-05 2.873E-03
 ETOT  6  -115.50103604358    -1.282E-06 1.633E-08 5.862E-03 1.234E-04 2.908E-03
 ETOT  7  -115.50103703037    -9.868E-07 1.564E-08 2.215E-05 2.476E-05 2.919E-03
 ETOT  8  -115.50103703422    -3.843E-09 9.876E-09 1.143E-06 1.336E-05 2.927E-03

 At SCF step    8, forces are converged : 
  for the second time, max diff in force=  1.336E-05 < toldff=  5.000E-05

 Cartesian components of stress tensor (hartree/bohr^3)
  sigma(1 1)= -1.56854886E-05  sigma(3 2)=  4.96575630E-07
  sigma(2 2)= -1.06270032E-05  sigma(3 1)= -1.06891845E-07
  sigma(3 3)=  3.01290203E-05  sigma(2 1)=  1.01254504E-07

 prt_cml2 : about to open file oPdHH_TIM10.cml

---OUTPUT-----------------------------------------------------------------------

 Cartesian coordinates (xcart) [bohr]
  2.55661091164184E-02  2.35773934332593E-02  4.24488730066593E-03
  3.83932895637231E+00 -1.12884962456981E-02  3.83322331405850E+00
  2.32697934093865E-02  3.85502064552476E+00  3.85992661503955E+00
  3.85415451448308E+00  3.82322644477208E+00  1.39911005774443E-02
  4.01717406370054E+00  5.34502343042063E-02  7.48890432451593E-02
 -1.38496824213112E-01  3.93885911880007E+00  4.68185285830631E-03
 Reduced coordinates (xred)
  3.32187547738199E-03  3.06347613201079E-03  5.51549982209723E-04
  4.98854661524751E-01 -1.46674563127098E-03  4.98061338481986E-01
  3.02350880763250E-03  5.00893526224768E-01  5.01530972452888E-01
  5.00780987415892E-01  4.96762417524482E-01  1.81790250906620E-03
  5.21962569658751E-01  6.94493721304819E-03  9.73054112958214E-03
 -1.79952765574863E-02  5.11786891623711E-01  6.08326129247832E-04
 Cartesian forces (fcart) [Ha/bohr]; max,rms= 2.92684E-03 1.28447E-03 (free atoms)
 -1.52546418239045E-03 -2.92684196319586E-03 -7.89023176917998E-04
  1.49085971360119E-03  1.38254096005159E-04  2.17382018340292E-03
 -8.22147173986120E-04 -1.23270932882950E-04 -1.89918847282232E-04
  8.75959110879770E-04  2.75535313375796E-03 -1.36853918246580E-03
 -2.70854883623933E-04  6.98373505907404E-05  3.00016245992979E-04
  2.51647415519542E-04  8.66683157249479E-05 -1.26355222729875E-04
 Reduced forces (fred)
  1.16657390961002E-02  2.24937550740054E-02  6.03918225281058E-03
 -1.15487571667634E-02 -1.09610578483560E-03 -1.67637124253845E-02
  6.25280911039555E-03  9.16666057683105E-04  1.42830301670568E-03
 -6.81630526964505E-03 -2.12380527130791E-02  1.04993041127132E-02
  2.00990508030594E-03 -5.69550834005912E-04 -2.34237837695943E-03
 -2.01142289674678E-03 -6.99086782624585E-04  9.39099079891845E-04
 Cartesian velocities (vel) [bohr*Ha/hbar]; max,rms= 6.20812E-04 2.59946E-04 (free atoms)
  1.35858994620552E-04  1.06865384835153E-04  4.67478127247635E-05
  1.73536750657993E-05 -3.87006536543568E-05 -2.11723582198062E-05
  1.31590950640933E-04  8.48898955387427E-06  4.41460612673932E-05
  2.08349334994519E-05 -9.13064742121685E-05  7.57131957099440E-05
  5.63730494502445E-04 -9.83639854327769E-05  6.20812011450648E-04
 -5.35851931798759E-04  8.65196622062460E-05  3.75030637261774E-04
 Kinetic energy of ions (ekin) [Ha]=  8.67721744557253E-03
 Total energy (etotal) [Ha]= -1.15501037034217E+02

 Difference of energy with previous step (new-old):
           Absolute (Ha)= 3.10339E-05
           Relative     = 2.68689E-07

--- Iteration: ( 11/800) Internal Cycle: (1/1)
--------------------------------------------------------------------------------

---SELF-CONSISTENT-FIELD CONVERGENCE--------------------------------------------

     iter   Etot(hartree)      deltaE(h)  residm     vres2    diffor    maxfor
 ETOT  1  -115.50089611122    -1.155E+02 6.523E-07 9.312E-01 4.992E-03 4.995E-03
 ETOT  2  -115.50074020339     1.559E-04 1.585E-07 1.598E+00 7.007E-03 4.190E-03
 ETOT  3  -115.50065447090     8.573E-05 2.758E-06 2.088E+00 1.368E-03 3.306E-03
 ETOT  4  -115.50100381341    -3.493E-04 8.644E-07 1.996E-02 7.966E-04 3.233E-03
 ETOT  5  -115.50100504086    -1.227E-06 4.703E-08 1.265E-02 1.127E-04 3.192E-03
 ETOT  6  -115.50100664751    -1.607E-06 1.730E-08 2.763E-03 1.087E-04 3.200E-03
 ETOT  7  -115.50100710917    -4.617E-07 1.401E-08 3.744E-05 1.500E-05 3.206E-03
 ETOT  8  -115.50100711556    -6.392E-09 9.934E-09 8.942E-07 1.382E-05 3.210E-03

 At SCF step    8, forces are converged : 
  for the second time, max diff in force=  1.382E-05 < toldff=  5.000E-05

 Cartesian components of stress tensor (hartree/bohr^3)
  sigma(1 1)= -1.73213579E-05  sigma(3 2)=  5.57130912E-07
  sigma(2 2)= -1.09479754E-05  sigma(3 1)= -1.37021056E-07
  sigma(3 3)=  2.95761658E-05  sigma(2 1)=  1.51052410E-07

 prt_cml2 : about to open file oPdHH_TIM11.cml

---OUTPUT-----------------------------------------------------------------------

 Cartesian coordinates (xcart) [bohr]
  2.91543335919636E-02  2.60845316613059E-02  5.49765531293064E-03
  3.83985781367773E+00 -1.21635991042717E-02  3.83257880497826E+00
  2.67354988004235E-02  3.85520618879558E+00  3.86089525486146E+00
  3.85488122160078E+00  3.82127497372129E+00  1.55476557820988E-02
  4.03050953373777E+00  4.80164807347442E-02  8.94309136746172E-02
 -1.52676021004728E-01  3.94223451036212E+00  1.51724927570705E-02
 Reduced coordinates (xred)
  3.78810343715397E-03  3.38923555673320E-03  7.14325605197196E-04
  4.98923377421485E-01 -1.58045017320364E-03  4.97977595629336E-01
  3.47381752288878E-03  5.00917634376639E-01  5.01656830511937E-01
  5.00875410487566E-01  4.96508857477510E-01  2.02015004466060E-03
  5.23695284273021E-01  6.23891453864204E-03  1.16200066933452E-02
 -1.98376189294351E-02  5.12225465612638E-01  1.97140407212379E-03
 Cartesian forces (fcart) [Ha/bohr]; max,rms= 3.20962E-03 1.41855E-03 (free atoms)
 -1.70114389743155E-03 -3.20961694861701E-03 -9.58308772100910E-04
  1.62932719305329E-03  1.55870761905665E-04  2.39289069945997E-03
 -9.47847729446671E-04 -9.46864699201761E-05 -1.24882171630965E-04
  1.03523507260834E-03  2.99437306128106E-03 -1.55571338199880E-03
 -3.09525723768837E-04  7.37502873264659E-05  3.42991682928769E-04
  2.93955084985430E-04  8.03093080239880E-05 -9.69780566580613E-05
 Reduced forces (fred)
  1.30137717641904E-02  2.46681975560680E-02  7.33829137660831E-03
 -1.26184916629498E-02 -1.23356385041281E-03 -1.84535036332192E-02
  7.21618779127778E-03  6.94796671341508E-04  9.24000548063181E-04
 -8.04618783039610E-03 -2.30794939604207E-02  1.19360890807348E-02
  2.30347804051011E-03 -6.01541058445145E-04 -2.67689120716318E-03
 -2.34108383765985E-03 -6.52021168248013E-04  7.09242453411008E-04
 Cartesian velocities (vel) [bohr*Ha/hbar]; max,rms= 6.37491E-04 2.49757E-04 (free atoms)
  1.44666444200222E-04  1.07591809194225E-04  6.32384763625478E-05
  2.77030887989864E-05 -2.61483627416699E-05 -2.85821456570242E-05
  1.42956299789949E-04 -1.31620267192963E-05  3.82215030927611E-05
  2.14404626362101E-05 -8.33033578833408E-05  6.99078370953997E-05
  4.03983652834791E-04 -2.10719510260981E-04  6.37491332321582E-04
 -5.60096383971863E-04 -2.39118699144364E-05  3.48427271049413E-04
 Kinetic energy of ions (ekin) [Ha]=  8.97862297157027E-03
 Total energy (etotal) [Ha]= -1.15501007115561E+02

 Difference of energy with previous step (new-old):
           Absolute (Ha)= 2.99187E-05
           Relative     = 2.59034E-07

--- Iteration: ( 12/800) Internal Cycle: (1/1)
--------------------------------------------------------------------------------

---SELF-CONSISTENT-FIELD CONVERGENCE--------------------------------------------

     iter   Etot(hartree)      deltaE(h)  residm     vres2    diffor    maxfor
 ETOT  1  -115.50086812803    -1.155E+02 1.046E-06 9.121E-01 5.763E-03 4.441E-03
 ETOT  2  -115.50070020541     1.679E-04 8.375E-08 1.660E+00 8.025E-03 4.654E-03
 ETOT  3  -115.50063334110     6.686E-05 2.844E-06 2.041E+00 1.507E-03 3.674E-03
 ETOT  4  -115.50097523736    -3.419E-04 8.604E-07 1.639E-02 8.026E-04 3.508E-03
 ETOT  5  -115.50097591676    -6.794E-07 4.081E-08 1.225E-02 1.393E-04 3.475E-03
 ETOT  6  -115.50097757378    -1.657E-06 1.993E-08 2.107E-03 1.120E-04 3.495E-03
 ETOT  7  -115.50097792177    -3.480E-07 1.201E-08 5.408E-05 1.269E-05 3.502E-03
 ETOT  8  -115.50097793101    -9.237E-09 3.856E-09 9.044E-07 1.262E-05 3.508E-03

 At SCF step    8, forces are converged : 
  for the second time, max diff in force=  1.262E-05 < toldff=  5.000E-05

 Cartesian components of stress tensor (hartree/bohr^3)
  sigma(1 1)= -1.88859849E-05  sigma(3 2)=  6.17849414E-07
  sigma(2 2)= -1.11972356E-05  sigma(3 1)= -1.68598159E-07
  sigma(3 3)=  2.88362307E-05  sigma(2 1)=  1.95541275E-07

 prt_cml2 : about to open file oPdHH_TIM12.cml

---OUTPUT-----------------------------------------------------------------------

 Cartesian coordinates (xcart) [bohr]
  3.25406076024752E-02  2.86294331958434E-02  7.04289968589849E-03
  3.84041140790731E+00 -1.29450782943616E-02  3.83207221768593E+00
  3.02150235575086E-02  3.85482246043640E+00  3.86182611249734E+00
  3.85555501230681E+00  3.81958053585899E+00  1.70289747226556E-02
  4.04147645486335E+00  4.05199956376871E-02  1.07253014177222E-01
 -1.64929152294113E-01  3.94239540740192E+00  2.39493179100253E-02
 Reduced coordinates (xred)
  4.22809141279750E-03  3.71990167262266E-03  9.15103493054521E-04
  4.98995307455394E-01 -1.68198993217997E-03  4.97911773337180E-01
  3.92592182671035E-03  5.00867775486476E-01  5.01777779426748E-01
  5.00962957983083E-01  4.96288694465724E-01  2.21262192375686E-03
  5.25120246756892E-01  5.26487543487864E-03  1.39356816498063E-02
 -2.14297022678110E-02  5.12246371411345E-01  3.11180131098821E-03
 Cartesian forces (fcart) [Ha/bohr]; max,rms= 3.50827E-03 1.55595E-03 (free atoms)
 -1.87323485515227E-03 -3.50827331867170E-03 -1.14763108895722E-03
  1.77290017248071E-03  1.53169325632015E-04  2.61520826357561E-03
 -1.09132681360525E-03 -1.28311615019203E-05 -4.10776605685789E-05
  1.20003369206576E-03  3.22097508109895E-03 -1.74092110808355E-03
 -3.41487080952107E-04  7.20915684395092E-05  3.93391966290348E-04
  3.33114885163156E-04  7.48685050031467E-05 -7.89703722566120E-05
 Reduced forces (fred)
  1.43352121326025E-02  2.69641036886458E-02  8.79152651145535E-03
 -1.37264917465345E-02 -1.21541201118721E-03 -2.01683674187725E-02
  8.31742295136843E-03  6.21754830886244E-05  2.75173058126412E-04
 -9.31754654459995E-03 -2.48261274718573E-02  1.33576571415595E-02
  2.54644069891361E-03 -5.91414272135381E-04 -3.06863015294368E-03
 -2.64549006227366E-03 -6.12786374635527E-04  5.66806266032426E-04
 Cartesian velocities (vel) [bohr*Ha/hbar]; max,rms= 6.73747E-04 2.67957E-04 (free atoms)
  1.43120944821723E-04  9.52162056682113E-05  6.51726826845387E-05
  2.59443863345102E-05 -2.75626282921813E-05 -2.48714966828061E-05
  1.46218255283950E-04 -1.64163930882137E-05  3.18338370442071E-05
  3.51849794496743E-05 -5.45298823114887E-05  4.58017700985112E-05
  4.08365152010057E-04 -4.18845561227991E-04  6.73746825831864E-04
 -5.21441191441305E-04  5.49318818679896E-05  3.95667964806985E-04
 Kinetic energy of ions (ekin) [Ha]=  8.50029378826207E-03
 Total energy (etotal) [Ha]= -1.15500977931010E+02

 Difference of energy with previous step (new-old):
           Absolute (Ha)= 2.91846E-05
           Relative     = 2.52678E-07

--- Iteration: ( 13/800) Internal Cycle: (1/1)
--------------------------------------------------------------------------------

---SELF-CONSISTENT-FIELD CONVERGENCE--------------------------------------------

     iter   Etot(hartree)      deltaE(h)  residm     vres2    diffor    maxfor
 ETOT  1  -115.50084308120    -1.155E+02 1.298E-06 8.954E-01 5.337E-03 5.209E-03
 ETOT  2  -115.50066924164     1.738E-04 1.612E-07 1.682E+00 7.455E-03 4.733E-03
 ETOT  3  -115.50061041761     5.882E-05 2.969E-06 2.013E+00 1.403E-03 3.781E-03
 ETOT  4  -115.50094890925    -3.385E-04 8.858E-07 8.830E-03 7.933E-04 3.782E-03
 ETOT  5  -115.50094871380     1.955E-07 3.003E-08 9.611E-03 1.840E-04 3.728E-03
 ETOT  6  -115.50095015259    -1.439E-06 1.001E-08 9.050E-04 6.726E-05 3.734E-03
 ETOT  7  -115.50095028816    -1.356E-07 8.605E-09 1.056E-04 9.621E-06 3.738E-03
 ETOT  8  -115.50095030615    -1.798E-08 2.901E-09 9.403E-07 1.239E-05 3.740E-03

 At SCF step    8, forces are converged : 
  for the second time, max diff in force=  1.239E-05 < toldff=  5.000E-05

 Cartesian components of stress tensor (hartree/bohr^3)
  sigma(1 1)= -2.05025102E-05  sigma(3 2)=  6.53218942E-07
  sigma(2 2)= -1.14905020E-05  sigma(3 1)= -2.01544541E-07
  sigma(3 3)=  2.80519175E-05  sigma(2 1)=  3.04682969E-07

 prt_cml2 : about to open file oPdHH_TIM13.cml

---OUTPUT-----------------------------------------------------------------------

 Cartesian coordinates (xcart) [bohr]
  3.59298004982529E-02  3.08640633476709E-02  8.57745993418332E-03
  3.84115425732599E+00 -1.34791160262306E-02  3.83155400036598E+00
  3.38426704962167E-02  3.85428603391665E+00  3.86268485853686E+00
  3.85637151533211E+00  3.81857817618494E+00  1.81089578928218E-02
  4.05114110254855E+00  3.15919482839344E-02  1.23563079469968E-01
 -1.78416489834654E-01  3.94611446046557E+00  3.35069698845946E-02
 Reduced coordinates (xred)
  4.66845864730058E-03  4.01025336706986E-03  1.11449316295423E-03
  4.99091827941012E-01 -1.75137893609192E-03  4.97844439923274E-01
  4.39727205647822E-03  5.00798076100728E-01  5.01889358681807E-01
  5.01069048486123E-01  4.96158455092750E-01  2.35294713290870E-03
  5.26376001240174E-01  4.10482947597712E-03  1.60548936770943E-02
 -2.31821494480635E-02  5.12729598292485E-01  4.35365354478331E-03
 Cartesian forces (fcart) [Ha/bohr]; max,rms= 3.73966E-03 1.67252E-03 (free atoms)
 -2.03300108602648E-03 -3.73965840316899E-03 -1.33421482106040E-03
  1.90910328818124E-03  1.71219215838605E-04  2.82645271101732E-03
 -1.23434152571556E-03  5.89803387203009E-05  3.10985931727264E-05
  1.34947244276356E-03  3.36832928689715E-03 -1.90001952710779E-03
 -3.73624251844409E-04  7.96289808925157E-05  4.32297873274532E-04
  3.82391132641646E-04  6.15005808204192E-05 -5.56148292963791E-05
 Reduced forces (fred)
  1.55634559767446E-02  2.87426642408942E-02  1.02240502762218E-02
 -1.47761131207503E-02 -1.35657476709737E-03 -2.17976437476829E-02
  9.41674228900824E-03 -4.92752086491557E-04 -2.83794453076647E-04
 -1.04690331726068E-02 -2.59624534312493E-02  1.45786460315060E-02
  2.79241458858564E-03 -6.51669975640361E-04 -3.37153950624011E-03
 -3.02609725662489E-03 -5.12148594569637E-04  3.83576986881849E-04
 Cartesian velocities (vel) [bohr*Ha/hbar]; max,rms= 7.27795E-04 2.74852E-04 (free atoms)
  1.26352232051351E-04  8.35894582603765E-05  5.99537084875590E-05
  2.41546571313486E-05 -2.64723141366858E-05 -1.24100388343079E-05
  1.41330568041780E-04 -2.36441684380195E-05  3.33626439232217E-05
  3.81712866167133E-05 -2.45685435702931E-05  3.25442473335192E-05
  4.21279099596681E-04 -4.46261787771409E-04  7.27795299492449E-04
 -4.69522369225174E-04  1.79109874052436E-04  3.84951814051552E-04
 Kinetic energy of ions (ekin) [Ha]=  7.47900932522676E-03
 Total energy (etotal) [Ha]= -1.15500950306148E+02

 Difference of energy with previous step (new-old):
           Absolute (Ha)= 2.76249E-05
           Relative     = 2.39174E-07

--- Iteration: ( 14/800) Internal Cycle: (1/1)
--------------------------------------------------------------------------------

---SELF-CONSISTENT-FIELD CONVERGENCE--------------------------------------------

     iter   Etot(hartree)      deltaE(h)  residm     vres2    diffor    maxfor
 ETOT  1  -115.50079371704    -1.155E+02 2.480E-06 1.093E+00 5.385E-03 6.800E-03
 ETOT  2  -115.50058994297     2.038E-04 2.929E-07 2.001E+00 7.468E-03 4.909E-03
 ETOT  3  -115.50050292795     8.702E-05 4.360E-06 2.495E+00 1.380E-03 3.860E-03
 ETOT  4  -115.50092248176    -4.196E-04 1.326E-06 6.560E-03 9.303E-04 4.021E-03
 ETOT  5  -115.50092149021     9.915E-07 2.770E-08 1.159E-02 2.401E-04 3.920E-03
 ETOT  6  -115.50092330016    -1.810E-06 6.922E-09 8.553E-04 3.520E-05 3.928E-03
 ETOT  7  -115.50092343463    -1.345E-07 8.382E-09 6.234E-05 1.141E-05 3.930E-03

 At SCF step    7, forces are converged : 
  for the second time, max diff in force=  1.141E-05 < toldff=  5.000E-05

 Cartesian components of stress tensor (hartree/bohr^3)
  sigma(1 1)= -2.21442183E-05  sigma(3 2)=  6.59669681E-07
  sigma(2 2)= -1.15115326E-05  sigma(3 1)= -2.28858092E-07
  sigma(3 3)=  2.73527660E-05  sigma(2 1)=  5.06530204E-07

 prt_cml2 : about to open file oPdHH_TIM14.cml

---OUTPUT-----------------------------------------------------------------------

 Cartesian coordinates (xcart) [bohr]
  3.91511657250912E-02  3.32741908301132E-02  9.84292636183179E-03
  3.84187811253986E+00 -1.41969108803572E-02  3.83124421299107E+00
  3.71779673456316E-02  3.85405480301427E+00  3.86365988605854E+00
  3.85722851616218E+00  3.81810378169717E+00  1.87849873340408E-02
  4.06246044999266E+00  1.88635478672416E-02  1.40863237951963E-01
 -1.92309383468734E-01  3.95287841496707E+00  4.31182909054955E-02
 Reduced coordinates (xred)
  5.08701956722770E-03  4.32340791651000E-03  1.27891872627767E-03
  4.99185880456911E-01 -1.84464401263745E-03  4.97804188390308E-01
  4.83063642817080E-03  5.00768031628152E-01  5.02016046712405E-01
  5.01180400981277E-01  4.96096815700992E-01  2.44078551349872E-03
  5.27846755453235E-01  2.45099310150287E-03  1.83027512589605E-02
 -2.49872916565543E-02  5.13608457663942E-01  5.60247914664515E-03
 Cartesian forces (fcart) [Ha/bohr]; max,rms= 3.92976E-03 1.76552E-03 (free atoms)
 -2.17274985812464E-03 -3.92975748578971E-03 -1.48897781635790E-03
  2.01311588021655E-03  2.60578502804258E-04  2.99323039125802E-03
 -1.34118757114812E-03  7.68328283813349E-05  7.35049516080987E-05
  1.47354876353847E-03  3.46168920590182E-03 -2.02007764839994E-03
 -4.13488899911775E-04  9.55966389800531E-05  4.73719170866158E-04
  4.40761685429521E-04  3.50603097222420E-05 -3.13990489744399E-05
 Reduced forces (fred)
  1.66384896869469E-02  3.02040232466378E-02  1.14146498557654E-02
 -1.55771369799049E-02 -2.04600775189898E-03 -2.30817136890615E-02
  1.02385471512637E-02 -6.31848192351428E-04 -6.10666929987364E-04
 -1.14244732588990E-02 -2.66826764308906E-02  1.55021469188399E-02
  3.09871135143502E-03 -7.76259875592701E-04 -3.69083067157278E-03
 -3.47584685410377E-03 -3.10354874080612E-04  1.96704431131717E-04
 Cartesian velocities (vel) [bohr*Ha/hbar]; max,rms= 6.70662E-04 2.87057E-04 (free atoms)
  1.21301380082915E-04  9.05740997025813E-05  4.68283843527934E-05
  3.27237989675062E-05 -2.25106751476451E-05 -8.24869111164909E-06
  1.32299496240970E-04 -1.42899037969019E-05  4.15171054035404E-05
  3.17551747649477E-05 -4.54028416115784E-06  2.44387343568966E-05
  4.30994653162444E-04 -4.47412349589831E-04  6.70662125157753E-04
 -5.73768055543530E-04  3.64388420738026E-04  3.71090955011825E-04
 Kinetic energy of ions (ekin) [Ha]=  7.23601825789292E-03
 Total energy (etotal) [Ha]= -1.15500923434630E+02

 Difference of energy with previous step (new-old):
           Absolute (Ha)= 2.68715E-05
           Relative     = 2.32652E-07

--- Iteration: ( 15/800) Internal Cycle: (1/1)
--------------------------------------------------------------------------------

---SELF-CONSISTENT-FIELD CONVERGENCE--------------------------------------------

     iter   Etot(hartree)      deltaE(h)  residm     vres2    diffor    maxfor
 ETOT  1  -115.50079564995    -1.155E+02 2.351E-06 8.789E-01 4.582E-03 6.864E-03
 ETOT  2  -115.50059441743     2.012E-04 2.479E-07 1.829E+00 6.347E-03 4.758E-03
 ETOT  3  -115.50057567224     1.875E-05 3.458E-06 1.922E+00 1.148E-03 3.935E-03
 ETOT  4  -115.50089886225    -3.232E-04 9.667E-07 5.305E-03 7.851E-04 4.197E-03
 ETOT  5  -115.50089865443     2.078E-07 3.694E-08 5.643E-03 2.059E-04 4.114E-03
 ETOT  6  -115.50089946167    -8.072E-07 5.900E-09 8.468E-04 2.679E-05 4.098E-03
 ETOT  7  -115.50089958940    -1.277E-07 4.040E-09 1.018E-04 1.082E-05 4.092E-03

 At SCF step    7, forces are converged : 
  for the second time, max diff in force=  1.082E-05 < toldff=  5.000E-05

 Cartesian components of stress tensor (hartree/bohr^3)
  sigma(1 1)= -2.37673076E-05  sigma(3 2)=  6.54212767E-07
  sigma(2 2)= -1.19551666E-05  sigma(3 1)= -2.41381804E-07
  sigma(3 3)=  2.65207069E-05  sigma(2 1)=  7.13531626E-07

 prt_cml2 : about to open file oPdHH_TIM15.cml

---OUTPUT-----------------------------------------------------------------------

 Cartesian coordinates (xcart) [bohr]
  4.20126329874816E-02  3.54211367001805E-02  1.12082278802370E-02
  3.84293249965404E+00 -1.48335788775104E-02  3.83149256267947E+00
  4.03914373595416E-02  3.85390588272357E+00  3.86469577664772E+00
  3.85766471506634E+00  3.81759043587475E+00  1.92587917933757E-02
  4.07085248704082E+00  7.14718103716787E-03  1.56523023383752E-01
 -2.04440802488626E-01  3.96220923486841E+00  5.22098615965049E-02
 Reduced coordinates (xred)
  5.45881794628420E-03  4.60236654899362E-03  1.45631613988372E-03
  4.99322879899505E-01 -1.92736805161211E-03  4.97836457154239E-01
  5.24817150118099E-03  5.00748682001678E-01  5.02150642850198E-01
  5.01237077514903E-01  4.96030115254274E-01  2.50234824122438E-03
  5.28937156106248E-01  9.28653058299376E-04  2.03374706200509E-02
 -2.65635605821276E-02  5.14820836977235E-01  6.78377214636696E-03
 Cartesian forces (fcart) [Ha/bohr]; max,rms= 4.09188E-03 1.84482E-03 (free atoms)
 -2.29651884859852E-03 -4.09188082634514E-03 -1.61801442729396E-03
  2.10279228409355E-03  3.53308255886170E-04  3.11770395610080E-03
 -1.47087137932161E-03  8.04401120141885E-05  9.98244421535763E-05
  1.61006179693879E-03  3.53205357041580E-03 -2.09559385264351E-03
 -4.47924688496986E-04  1.19315769215226E-04  5.02032266434500E-04
  5.02460835384771E-04  6.76311881376193E-06 -5.95238475140482E-06
 Reduced forces (fred)
  1.75924543037118E-02  3.14516148523976E-02  1.24060785678062E-02
 -1.62659095095281E-02 -2.75983885597665E-03 -2.40413722047671E-02
  1.12380339062729E-02 -6.59767138019405E-04 -8.14903458688358E-04
 -1.24737139605509E-02 -2.72243770717849E-02  1.60816671873609E-02
  3.36514195232387E-03 -9.58965377309669E-04 -3.91041055793321E-03
 -3.94929839068825E-03 -9.27278072687436E-05 -8.14575148227033E-07
[...]
                       1.66666667E-01  5.00000000E-01  5.00000000E-01
                       5.00000000E-01  1.66666667E-01  5.00000000E-01
                       3.33333333E-01  3.33333333E-01 -3.33333333E-01
                       1.66666667E-01  5.00000000E-01 -1.66666667E-01
                       5.00000000E-01  1.66666667E-01 -1.66666667E-01
                       3.33333333E-01 -3.33333333E-01  0.00000000E+00
                       1.66666667E-01 -1.66666667E-01  1.66666667E-01
                       5.00000000E-01  5.00000000E-01  1.66666667E-01
                       3.33333333E-01 -3.33333333E-01  3.33333333E-01
                       1.66666667E-01 -1.66666667E-01  5.00000000E-01
                      -1.66666667E-01  1.66666667E-01  1.66666667E-01
                      -3.33333333E-01  3.33333333E-01  3.33333333E-01
                       5.00000000E-01  5.00000000E-01  5.00000000E-01
         kptrlatt        0    3    3      3    0    3      3    3    0
          kptrlen      3.26525830E+01
P           mkmem          28
            natom           6
            nband          24
            ngfft          45      45      45
             nkpt          28
            nline           6
            nstep         500
             nsym           1
            ntime         800
           ntypat           2
              occ      2.000000  2.000000  2.000000  2.000000  2.000000  2.000000
                       2.000000  2.000000  2.000000  2.000000  2.000000  2.000000
                       2.000000  1.999993  1.999930  1.999723  1.475218  1.009544
                       0.594469  0.302545  0.000034  0.000000  0.000000  0.000000
                       2.000000  2.000000  2.000000  2.000000  2.000000  2.000000
                       2.000000  2.000000  2.000000  2.000000  2.000000  2.000000
                       2.000000  2.000000  2.000000  2.000000  2.000000  2.000000
                       2.000000  2.000000  1.999734  0.000019  0.000000  0.000000
                       2.000000  2.000000  2.000000  2.000000  2.000000  2.000000
                       2.000000  2.000000  2.000000  2.000000  2.000000  2.000000
                       2.000000  2.000000  2.000000  2.000000  2.000000  2.000000
                       2.000000  2.000000  0.442056  0.326912  0.000000  0.000000
                       2.000000  2.000000  2.000000  2.000000  2.000000  2.000000
                       2.000000  2.000000  2.000000  2.000000  2.000000  2.000000
                       2.000000  2.000000  2.000000  2.000000  2.000000  2.000000
                       2.000000  2.000000  0.808957  0.351384  0.000000  0.000000
                       2.000000  2.000000  2.000000  2.000000  2.000000  2.000000
                       2.000000  2.000000  2.000000  2.000000  2.000000  2.000000
                       2.000000  2.000000  2.000000  2.000000  2.000000  2.000000
                       1.999788  1.992805  1.708870  0.000000  0.000000  0.000000
                       2.000000  2.000000  2.000000  2.000000  2.000000  2.000000
                       2.000000  2.000000  2.000000  2.000000  2.000000  2.000000
                       2.000000  2.000000  2.000000  2.000000  2.000000  2.000000
                       2.000000  2.000000  2.000000  0.000000  0.000000  0.000000
                       2.000000  2.000000  2.000000  2.000000  2.000000  2.000000
                       2.000000  2.000000  2.000000  2.000000  2.000000  2.000000
                       2.000000  2.000000  2.000000  2.000000  2.000000  2.000000
                       2.000000  2.000000  2.000000  0.000000  0.000000  0.000000
                       2.000000  2.000000  2.000000  2.000000  2.000000  2.000000
                       2.000000  2.000000  2.000000  2.000000  2.000000  2.000000
                       2.000000  2.000000  2.000000  2.000000  2.000000  2.000000
                       2.000000  2.000000  1.999999  1.869679  0.000000  0.000000
                       2.000000  2.000000  2.000000  2.000000  2.000000  2.000000
                       2.000000  2.000000  2.000000  2.000000  2.000000  2.000000
                       2.000000  2.000000  2.000000  2.000000  2.000000  2.000000
                       2.000000  2.000000  2.000000  0.000000  0.000000  0.000000
                       2.000000  2.000000  2.000000  2.000000  2.000000  2.000000
                       2.000000  2.000000  2.000000  2.000000  2.000000  2.000000
                       2.000000  2.000000  2.000000  2.000000  2.000000  2.000000
                       2.000000  2.000000  2.000000  0.000000  0.000000  0.000000
                       2.000000  2.000000  2.000000  2.000000  2.000000  2.000000
                       2.000000  2.000000  2.000000  2.000000  2.000000  2.000000
                       2.000000  2.000000  2.000000  2.000000  2.000000  2.000000
                       1.999756  1.984140  1.540692  0.000000  0.000000  0.000000
                       2.000000  2.000000  2.000000  2.000000  2.000000  2.000000
                       2.000000  2.000000  2.000000  2.000000  2.000000  2.000000
                       2.000000  2.000000  2.000000  2.000000  2.000000  2.000000
                       2.000000  2.000000  2.000000  0.000000  0.000000  0.000000
                       2.000000  2.000000  2.000000  2.000000  2.000000  2.000000
                       2.000000  2.000000  2.000000  2.000000  2.000000  2.000000
                       2.000000  2.000000  2.000000  2.000000  2.000000  2.000000
                       2.000000  2.000000  1.999970  1.999678  0.000000  0.000000
                       2.000000  2.000000  2.000000  2.000000  2.000000  2.000000
                       2.000000  2.000000  2.000000  2.000000  2.000000  2.000000
                       2.000000  2.000000  2.000000  2.000000  2.000000  2.000000
                       2.000000  2.000000  1.999974  1.999824  0.000000  0.000000
                       2.000000  2.000000  2.000000  2.000000  2.000000  2.000000
                       2.000000  2.000000  2.000000  2.000000  2.000000  2.000000
                       2.000000  2.000000  2.000000  2.000000  2.000000  2.000000
                       1.999993  1.999873  1.998444  0.000000  0.000000  0.000000
                       2.000000  2.000000  2.000000  2.000000  2.000000  2.000000
                       2.000000  2.000000  2.000000  2.000000  2.000000  2.000000
                       2.000000  2.000000  2.000000  2.000000  2.000000  2.000000
                       2.000000  2.000000  0.000000  0.000000  0.000000  0.000000
                       2.000000  2.000000  2.000000  2.000000  2.000000  2.000000
                       2.000000  2.000000  2.000000  2.000000  2.000000  2.000000
                       2.000000  2.000000  2.000000  2.000000  2.000000  2.000000
                       2.000000  2.000000  0.000030  0.000000  0.000000  0.000000
                       2.000000  2.000000  2.000000  2.000000  2.000000  2.000000
                       2.000000  2.000000  2.000000  2.000000  2.000000  2.000000
                       2.000000  2.000000  2.000000  2.000000  2.000000  2.000000
                       1.999992  1.999552  1.997688  0.000000  0.000000  0.000000
                       2.000000  2.000000  2.000000  2.000000  2.000000  2.000000
                       2.000000  2.000000  2.000000  2.000000  2.000000  2.000000
                       2.000000  2.000000  2.000000  2.000000  2.000000  2.000000
                       2.000000  2.000000  1.999933  1.999810  0.000000  0.000000
                       2.000000  2.000000  2.000000  2.000000  2.000000  2.000000
                       2.000000  2.000000  2.000000  2.000000  2.000000  2.000000
                       2.000000  2.000000  2.000000  2.000000  2.000000  2.000000
                       2.000000  2.000000  1.999950  1.999650  0.000000  0.000000
                       2.000000  2.000000  2.000000  2.000000  2.000000  2.000000
                       2.000000  2.000000  2.000000  2.000000  2.000000  2.000000
                       2.000000  2.000000  2.000000  2.000000  2.000000  2.000000
                       2.000000  2.000000  2.000000  0.000000  0.000000  0.000000
                       2.000000  2.000000  2.000000  2.000000  2.000000  2.000000
                       2.000000  2.000000  2.000000  2.000000  2.000000  2.000000
                       2.000000  2.000000  2.000000  2.000000  2.000000  2.000000
                       1.999391  1.980896  1.609794  0.000000  0.000000  0.000000
                       2.000000  2.000000  2.000000  2.000000  2.000000  2.000000
                       2.000000  2.000000  2.000000  2.000000  2.000000  2.000000
                       2.000000  2.000000  2.000000  2.000000  2.000000  2.000000
                       2.000000  2.000000  0.000000  0.000000  0.000000  0.000000
                       2.000000  2.000000  2.000000  2.000000  2.000000  2.000000
                       2.000000  2.000000  2.000000  2.000000  2.000000  2.000000
                       2.000000  2.000000  2.000000  2.000000  2.000000  2.000000
                       1.999976  1.999584  1.998105  0.000000  0.000000  0.000000
                       2.000000  2.000000  2.000000  2.000000  2.000000  2.000000
                       2.000000  2.000000  2.000000  2.000000  2.000000  2.000000
                       2.000000  2.000000  2.000000  2.000000  2.000000  2.000000
                       2.000000  2.000000  1.999999  1.870174  0.000000  0.000000
                       2.000000  2.000000  2.000000  2.000000  2.000000  2.000000
                       2.000000  2.000000  2.000000  2.000000  2.000000  2.000000
                       2.000000  2.000000  2.000000  2.000000  2.000000  2.000000
                       1.998871  1.976998  1.860556  0.000000  0.000000  0.000000
                       2.000000  2.000000  2.000000  2.000000  2.000000  2.000000
                       2.000000  2.000000  2.000000  2.000000  2.000000  2.000000
                       2.000000  2.000000  2.000000  2.000000  2.000000  2.000000
                       1.999958  1.999643  1.998832  0.000000  0.000000  0.000000
                       2.000000  2.000000  2.000000  2.000000  2.000000  2.000000
                       2.000000  2.000000  2.000000  2.000000  2.000000  2.000000
                       2.000000  2.000000  2.000000  1.999999  1.999997  1.999996
                       1.999553  1.999354  1.998651  1.997132  0.000000  0.000000
           occopt           3
        optforces           1
           prtcml           1
           prtden           0
          spgroup           1
           strten     -7.7724066406E-05 -6.3447445947E-05 -4.5154312926E-05
                       9.7441221373E-06 -4.8250652304E-06 -2.2265408848E-06
           toldff      5.00000000E-05
           tolmxf      0.00000000E+00
           tsmear      1.00000000E-03 Hartree
            typat      1  1  1  1  2  2
              vel      1.0511090549E-04  7.6378429195E-05  2.8650758636E-05
                       1.0060165365E-04 -1.8267868596E-04  1.5867820609E-04
                       6.0134280995E-05  9.5516522195E-05  9.2270538078E-05
                      -2.0699449480E-04 -5.1678188419E-05  6.4619124316E-05
                      -4.7521179535E-05  1.6696169526E-04  8.8483916739E-05
                       1.0918780682E-03  8.2414979820E-04 -4.0421884671E-04
              wtk        0.01852    0.03704    0.03704    0.03704    0.03704    0.03704
                         0.03704    0.03704    0.03704    0.03704    0.03704    0.03704
                         0.03704    0.03704    0.03704    0.03704    0.03704    0.03704
                         0.03704    0.03704    0.03704    0.03704    0.03704    0.03704
                         0.03704    0.03704    0.03704    0.01852
           xangst      1.0384408035E-01  1.6484310447E-01  9.0046661602E-03
                       2.0814344014E+00  1.6304166867E-01  2.1059318985E+00
                      -3.4374040865E-02  2.2724526032E+00  1.9955455336E+00
                       2.1269421981E+00  2.2723342704E+00  3.5901909248E-02
                       2.3535028795E+00  3.9093255433E-01  1.0142981515E-01
                      -9.2120589891E-02  2.0833767350E+00 -2.9016741506E-01
            xcart      1.9623687239E-01  3.1150832235E-01  1.7016352961E-02
                       3.9333409821E+00  3.0810410204E-01  3.9796345426E+00
                      -6.4957523316E-02  4.2943130699E+00  3.7710345442E+00
                       4.0193382548E+00  4.2940894535E+00  6.7844776126E-02
                       4.4474758953E+00  7.3875546412E-01  1.9167457234E-01
                      -1.7408268609E-01  3.9370114608E+00 -5.4833694716E-01
             xred      2.5497601187E-02  4.0475140441E-02  2.2109819432E-03
                       5.1106990482E-01  4.0032820653E-02  5.1708495555E-01
                      -8.4401111953E-03  5.5797200952E-01  4.8998097911E-01
                       5.2224376901E-01  5.5794295441E-01  8.8152599621E-03
                       5.7787288029E-01  9.5988546746E-02  2.4904808886E-02
                      -2.2619046306E-02  5.1154682030E-01 -7.1246940620E-02
            znucl       46.00000    1.00000

================================================================================

- Total cpu        time (s,m,h):     394194.5     6569.91    109.498
- Total wall clock time (s,m,h):     354038.1     5900.64     98.344
-
- For major independent code sections, cpu and wall times (sec),
-  as well as % of the time and number of calls for node 0-
-<BEGIN_TIMER mpi_nprocs = 1, omp_nthreads = 1, mpi_rank = 0>
- cpu_time =       394194.5, wall_time =       354038.1
-
- routine                        cpu     %       wall     %      number of calls  Gflops 
-                                                                  (-1=no count)
- fourwf%(pot)              150517.844  38.2 150593.128  42.5       35416049      -1.00    
- nonlop(apply)             100310.828  25.4 100329.535  28.3       35416049      -1.00    
- projbd                     85368.277  21.7  46279.555  13.1       59760226      -1.00    
- nonlop(forces)             19231.825   4.9  19230.774   5.4        4460736      -1.00    
- fourwf%(den)                9048.982   2.3   9047.632   2.6        3976955      -1.00    
- vtowfk(ssdiag)              5484.518   1.4   4599.675   1.3             -1      -1.00    
- nonlop(forstr)              2006.743   0.5   2009.081   0.6         479318      -1.00    
- getghc-other                1877.008   0.5   1854.684   0.5             -1      -1.00    
- others (85)                 1312.758   0.3   1310.317   0.4             -1      -1.00    
-<END_TIMER>
-
- subtotal                  375158.783  95.2 335254.381  94.7

- For major independent code sections, cpu and wall times (sec),
- as well as % of the total time and number of calls 

-<BEGIN_TIMER mpi_nprocs = 1, omp_nthreads = 1, mpi_rank = world>
- cpu_time =      394194.5, wall_time =      354038.1
-
- routine                         cpu     %       wall     %      number of calls Gflops 
-                                                                  (-1=no count)
- fourwf%(pot)              150517.844  38.2 150593.128  42.5       35416049      -1.00    
- nonlop(apply)             100310.828  25.4 100329.535  28.3       35416049      -1.00    
- projbd                     85368.277  21.7  46279.555  13.1       59760226      -1.00    
- nonlop(forces)             19231.825   4.9  19230.774   5.4        4460736      -1.00    
- fourwf%(den)                9048.982   2.3   9047.632   2.6        3976955      -1.00    
- vtowfk(ssdiag)              5484.518   1.4   4599.675   1.3             -1      -1.00    
- nonlop(forstr)              2006.743   0.5   2009.081   0.6         479318      -1.00    
- getghc-other                1877.008   0.5   1854.684   0.5             -1      -1.00    
- others (85)                 1312.758   0.3   1310.317   0.4             -1      -1.00    
-<END_TIMER>

- subtotal                  375158.783  95.2 335254.381  94.7

================================================================================

 Suggested references for the acknowledgment of ABINIT usage.

 The users of ABINIT have little formal obligations with respect to the ABINIT group
 (those specified in the GNU General Public License, http://www.gnu.org/copyleft/gpl.txt).
 However, it is common practice in the scientific literature,
 to acknowledge the efforts of people that have made the research possible.
 In this spirit, please find below suggested citations of work written by ABINIT developers,
 corresponding to implementations inside of ABINIT that you have used in the present run.
 Note also that it will be of great value to readers of publications presenting these results,
 to read papers enabling them to understand the theoretical formalism and details
 of the ABINIT implementation.
 For information on why they are suggested, see also http://www.abinit.org/about/?text=acknowledgments.

 [1] Ab initio pseudopotentials for electronic structure calculations of poly-atomic systems, 
 using density-functional theory.
 M. Fuchs, M. Scheffler, Comput. Phys. Commun. 119, 67 (1999).
 Comment : Some pseudopotential generated using the FHI code were used.

 [2] ABINIT : First-principles approach of materials and nanosystem properties.
 X. Gonze, B. Amadon, P.-M. Anglade, J.-M. Beuken, F. Bottin, P. Boulanger, F. Bruneval,
 D. Caliste, R. Caracas, M. Cote, T. Deutsch, L. Genovese, Ph. Ghosez, M. Giantomassi
 S. Goedecker, D.R. Hamann, P. Hermet, F. Jollet, G. Jomard, S. Leroux, M. Mancini, S. Mazevet,
 M.J.T. Oliveira, G. Onida, Y. Pouillon, T. Rangel, G.-M. Rignanese, D. Sangalli, R. Shaltaf,
 M. Torrent, M.J. Verstraete, G. Zerah, J.W. Zwanziger
 Computer Phys. Comm. 180, 2582-2615 (2009).
 Comment : the third generic paper describing the ABINIT project.
 Note that a version of this paper, that is not formatted for Computer Phys. Comm. 
 is available at http://www.abinit.org/about/ABINIT_CPC_v10.pdf .
 The licence allows the authors to put it on the Web.

 [3] A brief introduction to the ABINIT software package.
 X. Gonze, G.-M. Rignanese, M. Verstraete, J.-M. Beuken, Y. Pouillon, R. Caracas, F. Jollet,
 M. Torrent, G. Zerah, M. Mikami, Ph. Ghosez, M. Veithen, J.-Y. Raty, V. Olevano, F. Bruneval,
 L. Reining, R. Godby, G. Onida, D.R. Hamann, and D.C. Allan.
 Z. Kristallogr. 220, 558-562 (2005).
 Comment : the second generic paper describing the ABINIT project. Note that this paper
 should be cited especially if you are using the GW part of ABINIT, as several authors
 of this part are not in the list of authors of the first or third paper.
 The .pdf of the latter paper is available at http://www.abinit.org/about/zfk_0505-06_558-562.pdf.
 Note that it should not redistributed (Copyright by Oldenburg Wissenshaftverlag,
 the licence allows the authors to put it on the Web).


 And optionally :

 [4] First-principles computation of material properties : the ABINIT software project. 
 X. Gonze, J.-M. Beuken, R. Caracas, F. Detraux, M. Fuchs, G.-M. Rignanese, L. Sindic,
 M. Verstraete, G. Zerah, F. Jollet, M. Torrent, A. Roy, M. Mikami, Ph. Ghosez, J.-Y. Raty, D.C. Allan.
 Computational Materials Science 25, 478-492 (2002). http://dx.doi.org/10.1016/S0927-0256(02)00325-7
 Comment : the original paper describing the ABINIT project.

 [5] Fast radix 2, 3, 4 and 5 kernels for Fast Fourier Transformations
 on computers with overlapping multiply-add instructions.
 S. Goedecker, SIAM J. on Scientific Computing 18, 1605 (1997).
-
- Proc.   0 individual time (sec): cpu=     394194.5  wall=     354038.1

================================================================================

 Calculation completed.
.Delivered    5 WARNINGs and   5 COMMENTs to log file.
+Overall time at end (sec) : cpu=     394194.5  wall=     354038.1
