
.Version 7.10.2 of ABINIT 
.(sequential version, prepared for a i686_linux_gnu4.6 computer) 

.Copyright (C) 1998-2014 ABINIT group . 
 ABINIT comes with ABSOLUTELY NO WARRANTY.
 It is free software, and you are welcome to redistribute it
 under certain conditions (GNU General Public License,
 see ~abinit/COPYING or http://www.gnu.org/copyleft/gpl.txt).

 ABINIT is a project of the Universite Catholique de Louvain,
 Corning Inc. and other collaborators, see ~abinit/doc/developers/contributors.txt .
 Please read ~abinit/doc/users/acknowledgments.html for suggested
 acknowledgments of the ABINIT effort.
 For more information, see http://www.abinit.org .

.Starting date : Sat  6 Jun 2015.
- ( at 05h56 )
  
- input  file    -> in_PdH4_md.txt
- output file    -> out_PdH4_md.txt
- root for input  files -> iPdHH
- root for output files -> oPdHH


 Symmetries : space group P1 (#  1); Bravais aP (primitive triclinic)
================================================================================
 Values of the parameters that define the memory need of the present run
   intxc =         0  ionmov =         9    iscf =         7 xclevel =         2
  lmnmax =         4   lnmax =         4   mband =        26  mffmem =         1
P  mgfft =        48   mkmem =        28 mpssoang=         4     mpw =      5900
  mqgrid =      3001   natom =         8    nfft =    110592    nkpt =        28
  nloalg =         4  nspden =         1 nspinor =         1  nsppol =         1
    nsym =         1  n1xccc =         0  ntypat =         2  occopt =         3
================================================================================
P This job should need less than                     100.252 Mbytes of memory.
  Rough estimation (10% accuracy) of disk space for files :
_ WF disk file :     65.542 Mbytes ; DEN or POT disk file :      0.846 Mbytes.
================================================================================

--------------------------------------------------------------------------------
------------- Echo of variables that govern the present computation ------------
--------------------------------------------------------------------------------
-
- outvars: echo of selected default values                                      
-   accesswff0 =  0 , fftalg0 =112 , wfoptalg0 =  0
-
- outvars: echo of global parameters not present in the input file              
-  max_nthreads =    0
-
 -outvars: echo values of preprocessed input variables --------
            acell      7.8669298912E+00  7.8669298912E+00  7.8669298912E+00 Bohr
              amu      1.06000000E+02  2.00000000E+00
      chksymbreak           0
            dtion      2.50000000E+01
             ecut      4.00000000E+01 Hartree
-          fftalg         112
           ionmov           9
           istwfk        2    0    0    0    0    0    0    0    0    0
                         0    0    0    0    0    0    0    0    0    0
                         0    0    0    0    0    0    0    9
              ixc          11
              kpt      0.00000000E+00  0.00000000E+00  0.00000000E+00
                       0.00000000E+00  0.00000000E+00  3.33333333E-01
                       0.00000000E+00  3.33333333E-01  0.00000000E+00
                       3.33333333E-01  0.00000000E+00  0.00000000E+00
                       1.66666667E-01  1.66666667E-01  1.66666667E-01
                       0.00000000E+00  3.33333333E-01  3.33333333E-01
                       3.33333333E-01  0.00000000E+00  3.33333333E-01
                       1.66666667E-01  1.66666667E-01  5.00000000E-01
                       0.00000000E+00  3.33333333E-01 -3.33333333E-01
                       3.33333333E-01  0.00000000E+00 -3.33333333E-01
                       1.66666667E-01  1.66666667E-01 -1.66666667E-01
                       3.33333333E-01  3.33333333E-01  0.00000000E+00
                       1.66666667E-01  5.00000000E-01  1.66666667E-01
                       5.00000000E-01  1.66666667E-01  1.66666667E-01
                       3.33333333E-01  3.33333333E-01  3.33333333E-01
                       1.66666667E-01  5.00000000E-01  5.00000000E-01
                       5.00000000E-01  1.66666667E-01  5.00000000E-01
                       3.33333333E-01  3.33333333E-01 -3.33333333E-01
                       1.66666667E-01  5.00000000E-01 -1.66666667E-01
                       5.00000000E-01  1.66666667E-01 -1.66666667E-01
                       3.33333333E-01 -3.33333333E-01  0.00000000E+00
                       1.66666667E-01 -1.66666667E-01  1.66666667E-01
                       5.00000000E-01  5.00000000E-01  1.66666667E-01
                       3.33333333E-01 -3.33333333E-01  3.33333333E-01
                       1.66666667E-01 -1.66666667E-01  5.00000000E-01
                      -1.66666667E-01  1.66666667E-01  1.66666667E-01
                      -3.33333333E-01  3.33333333E-01  3.33333333E-01
                       5.00000000E-01  5.00000000E-01  5.00000000E-01
         kptrlatt        0    3    3      3    0    3      3    3    0
          kptrlen      3.33765568E+01
P           mkmem          28
            natom           8
            nband          26
            ngfft          48      48      48
             nkpt          28
            nline           6
            nstep         500
             nsym           1
            ntime         800
           ntypat           2
              occ      2.000000  2.000000  2.000000  2.000000  2.000000  2.000000
                       2.000000  2.000000  2.000000  2.000000  2.000000  2.000000
                       2.000000  2.000000  2.000000  2.000000  2.000000  2.000000
                       2.000000  2.000000  2.000000  2.000000  0.000000  0.000000
                       0.000000  0.000000
                       2.000000  2.000000  2.000000  2.000000  2.000000  2.000000
                       2.000000  2.000000  2.000000  2.000000  2.000000  2.000000
                       2.000000  2.000000  2.000000  2.000000  2.000000  2.000000
                       2.000000  2.000000  2.000000  2.000000  0.000000  0.000000
                       0.000000  0.000000
                       2.000000  2.000000  2.000000  2.000000  2.000000  2.000000
                       2.000000  2.000000  2.000000  2.000000  2.000000  2.000000
                       2.000000  2.000000  2.000000  2.000000  2.000000  2.000000
                       2.000000  2.000000  2.000000  2.000000  0.000000  0.000000
                       0.000000  0.000000
                       2.000000  2.000000  2.000000  2.000000  2.000000  2.000000
                       2.000000  2.000000  2.000000  2.000000  2.000000  2.000000
                       2.000000  2.000000  2.000000  2.000000  2.000000  2.000000
                       2.000000  2.000000  2.000000  2.000000  0.000000  0.000000
                       0.000000  0.000000
                       2.000000  2.000000  2.000000  2.000000  2.000000  2.000000
                       2.000000  2.000000  2.000000  2.000000  2.000000  2.000000
                       2.000000  2.000000  2.000000  2.000000  2.000000  2.000000
                       2.000000  2.000000  2.000000  2.000000  0.000000  0.000000
                       0.000000  0.000000
                       2.000000  2.000000  2.000000  2.000000  2.000000  2.000000
                       2.000000  2.000000  2.000000  2.000000  2.000000  2.000000
                       2.000000  2.000000  2.000000  2.000000  2.000000  2.000000
                       2.000000  2.000000  2.000000  2.000000  0.000000  0.000000
                       0.000000  0.000000
                       2.000000  2.000000  2.000000  2.000000  2.000000  2.000000
                       2.000000  2.000000  2.000000  2.000000  2.000000  2.000000
                       2.000000  2.000000  2.000000  2.000000  2.000000  2.000000
                       2.000000  2.000000  2.000000  2.000000  0.000000  0.000000
                       0.000000  0.000000
                       2.000000  2.000000  2.000000  2.000000  2.000000  2.000000
                       2.000000  2.000000  2.000000  2.000000  2.000000  2.000000
                       2.000000  2.000000  2.000000  2.000000  2.000000  2.000000
                       2.000000  2.000000  2.000000  2.000000  0.000000  0.000000
                       0.000000  0.000000
                       2.000000  2.000000  2.000000  2.000000  2.000000  2.000000
                       2.000000  2.000000  2.000000  2.000000  2.000000  2.000000
                       2.000000  2.000000  2.000000  2.000000  2.000000  2.000000
                       2.000000  2.000000  2.000000  2.000000  0.000000  0.000000
                       0.000000  0.000000
                       2.000000  2.000000  2.000000  2.000000  2.000000  2.000000
                       2.000000  2.000000  2.000000  2.000000  2.000000  2.000000
                       2.000000  2.000000  2.000000  2.000000  2.000000  2.000000
                       2.000000  2.000000  2.000000  2.000000  0.000000  0.000000
                       0.000000  0.000000
                       2.000000  2.000000  2.000000  2.000000  2.000000  2.000000
                       2.000000  2.000000  2.000000  2.000000  2.000000  2.000000
                       2.000000  2.000000  2.000000  2.000000  2.000000  2.000000
                       2.000000  2.000000  2.000000  2.000000  0.000000  0.000000
                       0.000000  0.000000
                       2.000000  2.000000  2.000000  2.000000  2.000000  2.000000
                       2.000000  2.000000  2.000000  2.000000  2.000000  2.000000
                       2.000000  2.000000  2.000000  2.000000  2.000000  2.000000
                       2.000000  2.000000  2.000000  2.000000  0.000000  0.000000
                       0.000000  0.000000
                       2.000000  2.000000  2.000000  2.000000  2.000000  2.000000
                       2.000000  2.000000  2.000000  2.000000  2.000000  2.000000
                       2.000000  2.000000  2.000000  2.000000  2.000000  2.000000
                       2.000000  2.000000  2.000000  2.000000  0.000000  0.000000
                       0.000000  0.000000
                       2.000000  2.000000  2.000000  2.000000  2.000000  2.000000
                       2.000000  2.000000  2.000000  2.000000  2.000000  2.000000
                       2.000000  2.000000  2.000000  2.000000  2.000000  2.000000
                       2.000000  2.000000  2.000000  2.000000  0.000000  0.000000
                       0.000000  0.000000
                       2.000000  2.000000  2.000000  2.000000  2.000000  2.000000
                       2.000000  2.000000  2.000000  2.000000  2.000000  2.000000
                       2.000000  2.000000  2.000000  2.000000  2.000000  2.000000
                       2.000000  2.000000  2.000000  2.000000  0.000000  0.000000
                       0.000000  0.000000
                       2.000000  2.000000  2.000000  2.000000  2.000000  2.000000
                       2.000000  2.000000  2.000000  2.000000  2.000000  2.000000
                       2.000000  2.000000  2.000000  2.000000  2.000000  2.000000
                       2.000000  2.000000  2.000000  2.000000  0.000000  0.000000
                       0.000000  0.000000
                       2.000000  2.000000  2.000000  2.000000  2.000000  2.000000
                       2.000000  2.000000  2.000000  2.000000  2.000000  2.000000
                       2.000000  2.000000  2.000000  2.000000  2.000000  2.000000
                       2.000000  2.000000  2.000000  2.000000  0.000000  0.000000
                       0.000000  0.000000
                       2.000000  2.000000  2.000000  2.000000  2.000000  2.000000
                       2.000000  2.000000  2.000000  2.000000  2.000000  2.000000
                       2.000000  2.000000  2.000000  2.000000  2.000000  2.000000
                       2.000000  2.000000  2.000000  2.000000  0.000000  0.000000
                       0.000000  0.000000
                       2.000000  2.000000  2.000000  2.000000  2.000000  2.000000
                       2.000000  2.000000  2.000000  2.000000  2.000000  2.000000
                       2.000000  2.000000  2.000000  2.000000  2.000000  2.000000
                       2.000000  2.000000  2.000000  2.000000  0.000000  0.000000
                       0.000000  0.000000
                       2.000000  2.000000  2.000000  2.000000  2.000000  2.000000
                       2.000000  2.000000  2.000000  2.000000  2.000000  2.000000
                       2.000000  2.000000  2.000000  2.000000  2.000000  2.000000
                       2.000000  2.000000  2.000000  2.000000  0.000000  0.000000
                       0.000000  0.000000
                       2.000000  2.000000  2.000000  2.000000  2.000000  2.000000
                       2.000000  2.000000  2.000000  2.000000  2.000000  2.000000
                       2.000000  2.000000  2.000000  2.000000  2.000000  2.000000
                       2.000000  2.000000  2.000000  2.000000  0.000000  0.000000
                       0.000000  0.000000
                       2.000000  2.000000  2.000000  2.000000  2.000000  2.000000
                       2.000000  2.000000  2.000000  2.000000  2.000000  2.000000
                       2.000000  2.000000  2.000000  2.000000  2.000000  2.000000
                       2.000000  2.000000  2.000000  2.000000  0.000000  0.000000
                       0.000000  0.000000
                       2.000000  2.000000  2.000000  2.000000  2.000000  2.000000
                       2.000000  2.000000  2.000000  2.000000  2.000000  2.000000
                       2.000000  2.000000  2.000000  2.000000  2.000000  2.000000
                       2.000000  2.000000  2.000000  2.000000  0.000000  0.000000
                       0.000000  0.000000
                       2.000000  2.000000  2.000000  2.000000  2.000000  2.000000
                       2.000000  2.000000  2.000000  2.000000  2.000000  2.000000
                       2.000000  2.000000  2.000000  2.000000  2.000000  2.000000
                       2.000000  2.000000  2.000000  2.000000  0.000000  0.000000
                       0.000000  0.000000
                       2.000000  2.000000  2.000000  2.000000  2.000000  2.000000
                       2.000000  2.000000  2.000000  2.000000  2.000000  2.000000
                       2.000000  2.000000  2.000000  2.000000  2.000000  2.000000
                       2.000000  2.000000  2.000000  2.000000  0.000000  0.000000
                       0.000000  0.000000
                       2.000000  2.000000  2.000000  2.000000  2.000000  2.000000
                       2.000000  2.000000  2.000000  2.000000  2.000000  2.000000
                       2.000000  2.000000  2.000000  2.000000  2.000000  2.000000
                       2.000000  2.000000  2.000000  2.000000  0.000000  0.000000
                       0.000000  0.000000
                       2.000000  2.000000  2.000000  2.000000  2.000000  2.000000
                       2.000000  2.000000  2.000000  2.000000  2.000000  2.000000
                       2.000000  2.000000  2.000000  2.000000  2.000000  2.000000
                       2.000000  2.000000  2.000000  2.000000  0.000000  0.000000
                       0.000000  0.000000
                       2.000000  2.000000  2.000000  2.000000  2.000000  2.000000
                       2.000000  2.000000  2.000000  2.000000  2.000000  2.000000
                       2.000000  2.000000  2.000000  2.000000  2.000000  2.000000
                       2.000000  2.000000  2.000000  2.000000  0.000000  0.000000
                       0.000000  0.000000
           occopt           3
        optforces           1
           prtden           0
          spgroup           1
           toldff      5.00000000E-05
           tolmxf      0.00000000E+00
           tsmear      1.00000000E-03 Hartree
            typat      1  1  1  1  2  2  2  2
              wtk        0.01852    0.03704    0.03704    0.03704    0.03704    0.03704
                         0.03704    0.03704    0.03704    0.03704    0.03704    0.03704
                         0.03704    0.03704    0.03704    0.03704    0.03704    0.03704
                         0.03704    0.03704    0.03704    0.03704    0.03704    0.03704
                         0.03704    0.03704    0.03704    0.01852
           xangst      0.0000000000E+00  0.0000000000E+00  0.0000000000E+00
                       2.0815000000E+00  1.2745090627E-16  2.0815000000E+00
                       2.5490181255E-16  2.0815000000E+00  2.0815000000E+00
                       2.0815000000E+00  2.0815000000E+00  0.0000000000E+00
                       2.0815000000E+00  0.0000000000E+00  0.0000000000E+00
                       1.2745090627E-16  2.0815000000E+00  0.0000000000E+00
                       1.2745090627E-16  1.2745090627E-16  2.0815000000E+00
                       8.4117598141E-17  1.3737900000E+00  0.0000000000E+00
            xcart      0.0000000000E+00  0.0000000000E+00  0.0000000000E+00
                       3.9334649456E+00  2.4084730825E-16  3.9334649456E+00
                       4.8169461649E-16  3.9334649456E+00  3.9334649456E+00
                       3.9334649456E+00  3.9334649456E+00  0.0000000000E+00
                       3.9334649456E+00  0.0000000000E+00  0.0000000000E+00
                       2.4084730825E-16  3.9334649456E+00  0.0000000000E+00
                       2.4084730825E-16  2.4084730825E-16  3.9334649456E+00
                       1.5895922344E-16  2.5960868641E+00  0.0000000000E+00
             xred      0.0000000000E+00  0.0000000000E+00  0.0000000000E+00
                       5.0000000000E-01 -3.1567195495E-33  5.0000000000E-01
                      -3.7134336740E-33  5.0000000000E-01  5.0000000000E-01
                       5.0000000000E-01  5.0000000000E-01  0.0000000000E+00
                       5.0000000000E-01  0.0000000000E+00  0.0000000000E+00
                      -3.1567195495E-33  5.0000000000E-01  0.0000000000E+00
                       1.0261595485E-33 -3.1567195495E-33  5.0000000000E-01
                      -3.4155163857E-33  3.3000000000E-01  0.0000000000E+00
            znucl       46.00000    1.00000

================================================================================

 chkinp: Checking input parameters for consistency.

================================================================================
== DATASET  1 ==================================================================
-   nproc =    1

 Exchange-correlation functional for the present dataset will be:
  GGA: Perdew-Burke-Ernzerhof functional - ixc=11
 Citation for XC functional:
  J.P.Perdew, K.Burke, M.Ernzerhof, PRL 77, 3865 (1996)

 Real(R)+Recip(G) space primitive vectors, cartesian coordinates (Bohr,Bohr^-1):
 R(1)=  7.8669299  0.0000000  0.0000000  G(1)=  0.1271144  0.0000000  0.0000000
 R(2)=  0.0000000  7.8669299  0.0000000  G(2)=  0.0000000  0.1271144  0.0000000
 R(3)=  0.0000000  0.0000000  7.8669299  G(3)=  0.0000000  0.0000000  0.1271144
 Unit cell volume ucvol=  4.8687317E+02 bohr^3
 Angles (23,13,12)=  9.00000000E+01  9.00000000E+01  9.00000000E+01 degrees

 getcut: wavevector=  0.0000  0.0000  0.0000  ngfft=  48  48  48
         ecut(hartree)=     40.000   => boxcut(ratio)=   2.14309

--- Pseudopotential description ------------------------------------------------
- pspini: atom type   1  psp file is ../../46-Pd.GGA.fhi
- pspatm: opening atomic psp file    ../../46-Pd.GGA.fhi
- palladium, fhi98PP : Trouiller-Martins-type, GGA Perdew/Burke/Ernzerhof (1996), l= 1 local
- 46.00000  10.00000     11001                znucl, zion, pspdat
    6   11    3    1       545   0.00000      pspcod,pspxc,lmax,lloc,mmax,r2well
    0.00000000000000    0.00000000000000    0.00000000000000   rchrg,fchrg,qchrg
  1.024700          amesh (Hamman grid)
 pspatm: epsatm=   86.15351388
         --- l  ekb(1:nproj) -->
             0   -0.441162
             2   -5.439492
             3   -2.195524
 pspatm: atomic psp has been read  and splines computed

- pspini: atom type   2  psp file is ../../01-H.GGA.fhi
- pspatm: opening atomic psp file    ../../01-H.GGA.fhi
- hydrogen, fhi98PP : Trouiller-Martins-type, GGA Perdew/Burke/Ernzerhof (1996), l= 2 local
-  1.00000   1.00000     21003                znucl, zion, pspdat
    6   11    3    2       387   0.00000      pspcod,pspxc,lmax,lloc,mmax,r2well
    0.00000000000000    0.00000000000000    0.00000000000000   rchrg,fchrg,qchrg
  1.024700          amesh (Hamman grid)
 pspatm: epsatm=    0.06052049
         --- l  ekb(1:nproj) -->
             0   -6.173171
             1  -23.886063
             3   -5.121104
 pspatm: atomic psp has been read  and splines computed

   1.51736700E+04                                ecore*ucvol(ha*bohr**3)
--------------------------------------------------------------------------------

P newkpt: treating     26 bands with npw=    2944 for ikpt=   1 by node    0
P newkpt: treating     26 bands with npw=    5874 for ikpt=   2 by node    0
P newkpt: treating     26 bands with npw=    5874 for ikpt=   3 by node    0
P newkpt: treating     26 bands with npw=    5874 for ikpt=   4 by node    0
P newkpt: treating     26 bands with npw=    5845 for ikpt=   5 by node    0
P newkpt: treating     26 bands with npw=    5888 for ikpt=   6 by node    0
P newkpt: treating     26 bands with npw=    5888 for ikpt=   7 by node    0
P newkpt: treating     26 bands with npw=    5888 for ikpt=   8 by node    0
P newkpt: treating     26 bands with npw=    5888 for ikpt=   9 by node    0
P newkpt: treating     26 bands with npw=    5888 for ikpt=  10 by node    0
P newkpt: treating     26 bands with npw=    5845 for ikpt=  11 by node    0
P newkpt: treating     26 bands with npw=    5888 for ikpt=  12 by node    0
P newkpt: treating     26 bands with npw=    5888 for ikpt=  13 by node    0
P newkpt: treating     26 bands with npw=    5888 for ikpt=  14 by node    0
P newkpt: treating     26 bands with npw=    5866 for ikpt=  15 by node    0
P newkpt: treating     26 bands with npw=    5900 for ikpt=  16 by node    0
P newkpt: treating     26 bands with npw=    5900 for ikpt=  17 by node    0
P newkpt: treating     26 bands with npw=    5866 for ikpt=  18 by node    0
P newkpt: treating     26 bands with npw=    5888 for ikpt=  19 by node    0
P newkpt: treating     26 bands with npw=    5888 for ikpt=  20 by node    0
P newkpt: treating     26 bands with npw=    5888 for ikpt=  21 by node    0
P newkpt: treating     26 bands with npw=    5845 for ikpt=  22 by node    0
P newkpt: treating     26 bands with npw=    5900 for ikpt=  23 by node    0
P newkpt: treating     26 bands with npw=    5866 for ikpt=  24 by node    0
P newkpt: treating     26 bands with npw=    5888 for ikpt=  25 by node    0
P newkpt: treating     26 bands with npw=    5845 for ikpt=  26 by node    0
P newkpt: treating     26 bands with npw=    5866 for ikpt=  27 by node    0
P newkpt: treating     26 bands with npw=    2952 for ikpt=  28 by node    0

_setup2: Arith. and geom. avg. npw (full set) are    5878.426    5878.401

================================================================================

=== [ionmov= 9] Langevin molecular dynamics                                 
================================================================================

--- Iteration: (  1/800) Internal Cycle: (1/3)
--------------------------------------------------------------------------------

---SELF-CONSISTENT-FIELD CONVERGENCE--------------------------------------------

     iter   Etot(hartree)      deltaE(h)  residm     vres2    diffor    maxfor
 ETOT  1  -113.11484478374    -1.131E+02 6.904E-02 1.650E+04 1.861E-01 1.861E-01
 ETOT  2  -115.20759505840    -2.093E+00 3.089E-03 5.192E+03 2.485E-01 1.328E-01
 ETOT  3  -116.31524328232    -1.108E+00 1.296E-02 1.581E+03 5.510E-02 1.375E-01
 ETOT  4  -116.52047859831    -2.052E-01 1.804E-03 1.560E+02 5.059E-02 1.427E-01
 ETOT  5  -116.54711239720    -2.663E-02 4.425E-04 3.209E+01 2.415E-02 1.296E-01
 ETOT  6  -116.54858235426    -1.470E-03 2.088E-04 2.045E+01 6.267E-03 1.308E-01
 ETOT  7  -116.55176237294    -3.180E-03 3.144E-05 7.102E-01 1.822E-03 1.326E-01
 ETOT  8  -116.55186516222    -1.028E-04 1.954E-05 1.860E-02 6.609E-04 1.324E-01
 ETOT  9  -116.55186577133    -6.091E-07 2.250E-05 1.357E-02 3.266E-04 1.326E-01
 ETOT 10  -116.55186766249    -1.891E-06 9.883E-06 4.245E-04 5.263E-05 1.326E-01
 ETOT 11  -116.55186772155    -5.906E-08 1.998E-05 4.400E-06 3.047E-05 1.326E-01
 ETOT 12  -116.55186772192    -3.694E-10 1.220E-05 7.565E-07 5.073E-06 1.326E-01

 At SCF step   12, forces are converged : 
  for the second time, max diff in force=  5.073E-06 < toldff=  5.000E-05

 Cartesian components of stress tensor (hartree/bohr^3)
  sigma(1 1)= -1.51775264E-04  sigma(3 2)= -4.94064257E-10
  sigma(2 2)= -1.16265614E-03  sigma(3 1)= -1.85635107E-10
  sigma(3 3)= -1.51775610E-04  sigma(2 1)= -3.64331178E-10


---OUTPUT-----------------------------------------------------------------------

 Cartesian coordinates (xcart) [bohr]
  0.00000000000000E+00  0.00000000000000E+00  0.00000000000000E+00
  3.93346494560147E+00  2.40847308246057E-16  3.93346494560147E+00
  4.81694616492115E-16  3.93346494560147E+00  3.93346494560147E+00
  3.93346494560147E+00  3.93346494560147E+00  0.00000000000000E+00
  3.93346494560147E+00  0.00000000000000E+00  0.00000000000000E+00
  2.40847308246057E-16  3.93346494560147E+00  0.00000000000000E+00
  2.40847308246057E-16  2.40847308246057E-16  3.93346494560147E+00
  1.58959223442398E-16  2.59608686409697E+00  0.00000000000000E+00
 Reduced coordinates (xred)
  0.00000000000000E+00  0.00000000000000E+00  0.00000000000000E+00
  5.00000000000000E-01 -3.15671954947220E-33  5.00000000000000E-01
 -3.71343367402164E-33  5.00000000000000E-01  5.00000000000000E-01
  5.00000000000000E-01  5.00000000000000E-01  0.00000000000000E+00
  5.00000000000000E-01  0.00000000000000E+00  0.00000000000000E+00
 -3.15671954947220E-33  5.00000000000000E-01  0.00000000000000E+00
  1.02615954849382E-33 -3.15671954947220E-33  5.00000000000000E-01
 -3.41551638574924E-33  3.30000000000000E-01  0.00000000000000E+00
 Cartesian forces (fcart) [Ha/bohr]; max,rms= 1.32588E-01 3.62493E-02 (free atoms)
 -3.87069660316616E-08 -1.16305539297383E-01  4.96892384969326E-08
 -4.74802616287372E-08  7.18547996497579E-04  6.87871010250001E-08
  3.14327654910037E-08  3.49421615277195E-03 -4.21325397958776E-08
 -4.62354121511203E-08  3.49412598391178E-03 -4.37109099293661E-08
  6.13464924542775E-09 -2.03703963267100E-03 -3.74735515053648E-08
  3.81826718827876E-08  1.32587610375931E-01  1.26438039550652E-08
  4.24557262557858E-08 -2.03707868552569E-03 -3.95589377876881E-08
  1.42168269365144E-08 -1.99148428935324E-02  3.17557955412988E-08
 Reduced forces (fred)
  3.12931334386215E-07  9.14967772748114E-01 -4.00046603532953E-07
  3.81950235763209E-07 -5.65251757485973E-03 -5.50288149169461E-07
 -2.38853016090389E-07 -2.74885043615147E-02  3.22308888724457E-07
  3.72157092197696E-07 -2.74877950094133E-02  3.34725815906980E-07
 -3.98345092069409E-08  1.60254971128756E-02  2.85656954481722E-07
 -2.91954056446735E-07 -1.04305718613253E+00 -1.08612767322825E-07
 -3.25569875620410E-07  1.60258043389455E-02  3.02062542160836E-07
 -1.03416434470964E-07  1.56668921974791E-01 -2.58965465139526E-07
 Cartesian velocities (vel) [bohr*Ha/hbar]; max,rms= 0.00000E+00 0.00000E+00 (free atoms)
  0.00000000000000E+00  0.00000000000000E+00  0.00000000000000E+00
  0.00000000000000E+00  0.00000000000000E+00  0.00000000000000E+00
  0.00000000000000E+00  0.00000000000000E+00  0.00000000000000E+00
  0.00000000000000E+00  0.00000000000000E+00  0.00000000000000E+00
  0.00000000000000E+00  0.00000000000000E+00  0.00000000000000E+00
  0.00000000000000E+00  0.00000000000000E+00  0.00000000000000E+00
  0.00000000000000E+00  0.00000000000000E+00  0.00000000000000E+00
  0.00000000000000E+00  0.00000000000000E+00  0.00000000000000E+00
 Kinetic energy of ions (ekin) [Ha]=  0.00000000000000E+00
 Total energy (etotal) [Ha]= -1.16551867721917E+02
 Rescaling or initializing velocities to initial temperature
 ---  Scaling factor :  0.15375D+01 Asked T (K)  0.30000D+03
 ---  Effective temperature 0.30000D+03

--- Iteration: (  2/800) Internal Cycle: (1/1)
--------------------------------------------------------------------------------

---SELF-CONSISTENT-FIELD CONVERGENCE--------------------------------------------

     iter   Etot(hartree)      deltaE(h)  residm     vres2    diffor    maxfor
 ETOT  1  -116.55462373517    -1.166E+02 2.947E-05 3.574E+00 6.592E-03 1.289E-01
 ETOT  2  -116.55486597576    -2.422E-04 3.903E-05 8.579E-01 8.629E-03 1.251E-01
 ETOT  3  -116.55492652930    -6.055E-05 9.064E-06 3.719E-01 2.721E-03 1.259E-01
 ETOT  4  -116.55497389061    -4.736E-05 4.335E-05 3.991E-02 1.148E-03 1.261E-01
 ETOT  5  -116.55497881814    -4.928E-06 7.320E-06 3.468E-03 2.502E-04 1.259E-01
 ETOT  6  -116.55497930465    -4.865E-07 4.296E-05 1.294E-04 1.530E-05 1.259E-01
 ETOT  7  -116.55497932325    -1.860E-08 5.928E-06 5.501E-06 1.946E-05 1.259E-01

 At SCF step    7, forces are converged : 
  for the second time, max diff in force=  1.946E-05 < toldff=  5.000E-05

 Cartesian components of stress tensor (hartree/bohr^3)
  sigma(1 1)= -1.50422500E-04  sigma(3 2)=  2.11144856E-06
  sigma(2 2)= -1.13421448E-03  sigma(3 1)=  1.82635647E-08
  sigma(3 3)= -1.50144075E-04  sigma(2 1)=  4.79296085E-06


---OUTPUT-----------------------------------------------------------------------

 Cartesian coordinates (xcart) [bohr]
  1.56027524014023E-03  2.51354907676584E-03 -5.77572360820243E-05
  3.93241430013705E+00 -2.10867304891963E-03  3.93244261209651E+00
  2.42738580172504E-03  3.93407496668605E+00  3.93450286574888E+00
  3.93457296629335E+00  3.93137635944549E+00  1.71644496884979E-03
  3.95358123711021E+00  1.69553582857215E-02  6.51882863372460E-03
 -1.82681204713964E-02  3.96185386761835E+00 -8.96313823683725E-03
 -1.19314232416964E-02 -2.00637543720773E-03  3.94989744281403E+00
 -9.07793839135926E-03  2.60883151089160E+00 -6.22575835638006E-03
 Reduced coordinates (xred)
  1.98333436514413E-04  3.19508259451578E-04 -7.34177587455182E-06
  4.99866447841922E-01 -2.68042689852602E-04  4.99870046699399E-01
  3.08555667241797E-04  5.00077542458497E-01  5.00131934587160E-01
  5.00140845375160E-01  4.99734510643305E-01  2.18184856429085E-04
  5.02557070138790E-01  2.15527003802100E-03  8.28636930019444E-04
 -2.32214100342049E-03  5.03608640525528E-01 -1.13934385596345E-03
 -1.51665559585560E-03 -2.55039191267177E-04  5.02088806871273E-01
 -1.15393660766072E-03  3.31620028012311E-01 -7.91383480275058E-04
 Cartesian forces (fcart) [Ha/bohr]; max,rms= 1.25924E-01 3.46695E-02 (free atoms)
  5.07596492297838E-04 -1.12536464248294E-01  3.43408054017187E-04
  2.50737372227392E-04  8.02690637863208E-04  8.78832260006893E-05
  4.60121339165782E-05  3.42427837598107E-03 -8.33386885831380E-05
 -1.01100455426271E-04  3.44384321870494E-03 -4.42568864749065E-06
 -3.03751645964422E-04 -1.96457428726364E-03  8.63015273726027E-05
 -8.98300402327663E-04  1.25923830873493E-01 -2.70281860403140E-04
 -1.06666523443259E-05 -1.99581759870702E-03 -2.11162416534571E-04
  5.09473157620874E-04 -1.70977869717772E-02  5.16158467778602E-05
 Reduced forces (fred)
 -3.99617004073505E-03  8.85318151053414E-01 -2.70310488501459E-03
 -1.97547735122477E-03 -6.31303436417560E-03 -6.92908977547171E-04
 -3.64918254473790E-04 -2.69368813035861E-02  6.54081820321334E-04
  7.92406171999731E-04 -2.70907965496272E-02  3.32787823230949E-05
  2.38664888033217E-03  1.54568447921822E-02 -6.80465865331000E-04
  7.06392226354368E-03 -9.90632272505243E-01  2.12475064666833E-03
  8.09697833592194E-05  1.57026337328764E-02  1.65966212654746E-03
 -4.01093363526062E-03  1.34508768009913E-01 -4.07596047863496E-04
 Cartesian velocities (vel) [bohr*Ha/hbar]; max,rms= 1.63781E-03 4.85380E-04 (free atoms)
  6.15700976283705E-05  9.57442827246352E-05 -1.27944733281449E-05
 -4.16114918458382E-05 -8.39792266139278E-05 -3.86465485949994E-05
  9.03192238339251E-05  1.57634443010144E-05  3.82307828406953E-05
  5.05856556227785E-05 -8.74675589779164E-05  6.32857074699682E-05
  8.78105030747440E-04  7.09941432490774E-04  2.45150348304929E-04
 -7.04104128469420E-04  1.63781385586786E-03 -2.73441187628769E-04
 -4.30485299648972E-04 -8.08311454621540E-05  6.57226837880295E-04
 -3.55096148172696E-04  4.85713540180811E-04 -1.81138847738681E-04
 Kinetic energy of ions (ekin) [Ha]=  1.48078371750960E-02
 Total energy (etotal) [Ha]= -1.16554979323249E+02

 Difference of energy with previous step (new-old):
           Absolute (Ha)=-3.11160E-03
           Relative     =-2.66968E-05

--- Iteration: (  3/800) Internal Cycle: (1/1)
--------------------------------------------------------------------------------

---SELF-CONSISTENT-FIELD CONVERGENCE--------------------------------------------

     iter   Etot(hartree)      deltaE(h)  residm     vres2    diffor    maxfor
 ETOT  1  -116.56017928029    -1.166E+02 1.530E-05 4.748E+00 1.416E-02 1.177E-01
 ETOT  2  -116.56054961170    -3.703E-04 1.013E-05 8.270E-01 1.200E-02 1.083E-01
 ETOT  3  -116.56064407936    -9.447E-05 1.481E-05 1.073E-01 3.663E-03 1.105E-01
 ETOT  4  -116.56064009397     3.985E-06 7.485E-06 1.293E-01 5.381E-04 1.104E-01
 ETOT  5  -116.56065849171    -1.840E-05 1.124E-05 1.175E-03 1.190E-04 1.103E-01
 ETOT  6  -116.56065858297    -9.126E-08 5.754E-06 6.057E-04 4.599E-05 1.103E-01
 ETOT  7  -116.56065866480    -8.182E-08 8.652E-06 3.243E-05 3.918E-05 1.103E-01

 At SCF step    7, forces are converged : 
  for the second time, max diff in force=  3.918E-05 < toldff=  5.000E-05

 Cartesian components of stress tensor (hartree/bohr^3)
  sigma(1 1)= -1.45559472E-04  sigma(3 2)=  3.48773930E-06
  sigma(2 2)= -1.09024938E-03  sigma(3 1)=  7.20262253E-08
  sigma(3 3)= -1.44874707E-04  sigma(2 1)=  8.92099851E-06


---OUTPUT-----------------------------------------------------------------------

 Cartesian coordinates (xcart) [bohr]
  2.93136190350209E-03  4.82276126989159E-03 -5.59911461069772E-04
  3.93143419228592E+00 -4.40210965501350E-03  3.93148689216403E+00
  4.51816225291483E-03  3.93457632792283E+00  3.93581098847072E+00
  3.93632564812273E+00  3.92916850839234E+00  3.28305859689438E-03
  3.97244465719159E+00  3.33685177046494E-02  1.14454215090895E-02
 -3.66982544781707E-02  4.01328120529915E+00 -1.61640610573003E-02
 -2.23135939446998E-02 -5.60445098438168E-03  3.96691476327214E+00
 -1.82278446739989E-02  2.61822107768160E+00 -1.13541811236174E-02
 Reduced coordinates (xred)
  3.72618282359429E-04  6.13042360436512E-04 -7.11728042340741E-05
  4.99741862029581E-01 -5.59571486703641E-04  4.99748560942478E-01
  5.74323441977882E-04  5.00141272686644E-01  5.00298215809941E-01
  5.00363636458037E-01  4.99453861001871E-01  4.17323993260141E-04
  5.04954882289432E-01  4.24161879743751E-03  1.45487778172374E-03
 -4.66487625867980E-03  5.10145795221454E-01 -2.05468477294752E-03
 -2.83637889917537E-03 -7.12406372230292E-04  5.04251953193085E-01
 -2.31702136997332E-03  3.32813577073998E-01 -1.44327981571490E-03
 Cartesian forces (fcart) [Ha/bohr]; max,rms= 1.10256E-01 3.16615E-02 (free atoms)
  1.01290787148599E-03 -1.08817599063762E-01  6.38717682717778E-04
  4.64100301566182E-04  9.15651057385653E-04  1.60576037892939E-04
  1.23715089090576E-04  3.24332124087652E-03 -1.77731291755858E-04
 -2.38844123559208E-04  3.27703740371185E-03  3.12525691360041E-06
 -5.90419193848858E-04 -1.84349151977389E-03  1.63817582410234E-04
 -1.58199830915710E-03  1.10256076842337E-01 -4.12880133731271E-04
 -7.50777132386967E-06 -1.90313518900648E-03 -4.26924945259496E-04
  8.18046135746294E-04 -5.12786077176901E-03  5.12998108120745E-05
 Reduced forces (fred)
 -7.97422208818459E-03  8.56063583749334E-01 -5.02728359237266E-03
 -3.65679141186403E-03 -7.20020168756734E-03 -1.26577679447125E-03
 -9.79004809316223E-04 -2.55118198309334E-02  1.39566324955591E-03
  1.87322309800936E-03 -2.57770625201594E-02 -2.71225391916485E-05
  4.63903952747278E-03  1.45057795267798E-02 -1.29127779792802E-03
  1.24397229091838E-02 -8.67373665612057E-01  3.24556270337400E-03
  5.33162336873289E-05  1.49749920910866E-02  3.35605225100175E-03
 -6.44125847464231E-03  4.03436821690480E-02 -4.06108377250917E-04
 Cartesian velocities (vel) [bohr*Ha/hbar]; max,rms= 2.55935E-03 6.20073E-04 (free atoms)
  5.40025545572355E-05  8.75708073790320E-05 -3.05703528843738E-05
 -3.87899873142593E-05 -9.13697689008876E-05 -3.59820056960300E-05
  7.68548498125346E-05  1.14170503888956E-05  4.90388858176393E-05
  7.63721011227914E-05 -9.22381548648797E-05  5.72924538377603E-05
  8.27990173652684E-04  6.88253477819029E-04  1.81460917970540E-04
 -7.10584669884531E-04  2.55935048242420E-03 -2.02952570973802E-04
 -3.68515198101242E-04 -1.44499149860793E-04  6.80619767701930E-04
 -3.57974863823906E-04  3.51510339995406E-04 -1.37245424172973E-04
 Kinetic energy of ions (ekin) [Ha]=  2.14405477517210E-02
 Total energy (etotal) [Ha]= -1.16560658664799E+02

 Difference of energy with previous step (new-old):
           Absolute (Ha)=-5.67934E-03
           Relative     =-4.87255E-05

--- Iteration: (  4/800) Internal Cycle: (1/1)
--------------------------------------------------------------------------------

---SELF-CONSISTENT-FIELD CONVERGENCE--------------------------------------------

     iter   Etot(hartree)      deltaE(h)  residm     vres2    diffor    maxfor
 ETOT  1  -116.56705380207    -1.166E+02 2.139E-05 7.347E+00 1.955E-02 1.178E-01
 ETOT  2  -116.56761220444    -5.584E-04 1.153E-05 1.401E+00 1.723E-02 1.006E-01
 ETOT  3  -116.56772840759    -1.162E-04 2.695E-06 5.200E-01 4.709E-03 1.053E-01
 ETOT  4  -116.56777782023    -4.941E-05 9.145E-06 1.668E-01 8.331E-04 1.055E-01
 ETOT  5  -116.56779945869    -2.164E-05 1.541E-06 1.353E-02 4.200E-04 1.051E-01
 ETOT  6  -116.56780130573    -1.847E-06 6.027E-06 6.652E-04 1.577E-04 1.050E-01
 ETOT  7  -116.56780140048    -9.475E-08 9.624E-07 1.279E-05 2.128E-05 1.050E-01
 ETOT  8  -116.56780140185    -1.370E-09 3.892E-06 8.451E-06 4.450E-06 1.050E-01

 At SCF step    8, forces are converged : 
  for the second time, max diff in force=  4.450E-06 < toldff=  5.000E-05

 Cartesian components of stress tensor (hartree/bohr^3)
  sigma(1 1)= -1.37035954E-04  sigma(3 2)=  3.48581154E-06
  sigma(2 2)= -1.03777179E-03  sigma(3 1)=  1.43957267E-07
  sigma(3 3)= -1.35765379E-04  sigma(2 1)=  1.19289554E-05


---OUTPUT-----------------------------------------------------------------------

 Cartesian coordinates (xcart) [bohr]
  4.15656753003001E-03  6.65475095667370E-03 -1.00871745516626E-03
  3.93037465139927E+00 -6.25602908101437E-03  3.93048761699643E+00
  6.11619522343046E-03  3.93496390353447E+00  3.93681360121674E+00
  3.93845671349802E+00  3.92689022567161E+00  4.77731155449854E-03
  3.99619256130083E+00  4.80999480483797E-02  1.66466269596206E-02
 -5.46501168561997E-02  4.08703386569786E+00 -1.80597915904380E-02
 -3.31704351773611E-02 -1.22600689275019E-02  3.98575235421514E+00
 -2.48337026916002E-02  2.62470465173632E+00 -1.13639675048015E-02
 Reduced coordinates (xred)
  5.28359549088905E-04  8.45914613287106E-04 -1.28222504727574E-04
  4.99607179135325E-01 -7.95231324993796E-04  4.99621538688382E-01
  7.77456429384139E-04  5.00190539124377E-01  5.00425662318285E-01
  5.00634525534813E-01  4.99164258481926E-01  6.07265047555679E-04
  5.07973582651285E-01  6.11419559009502E-03  2.11602584360583E-03
 -6.94681630724987E-03  5.19520819712417E-01 -2.29565940464693E-03
 -4.21643965766794E-03 -1.55843119197131E-03  5.06646482088540E-01
 -3.15672098709946E-03  3.33637732639686E-01 -1.44452380559652E-03
 Cartesian forces (fcart) [Ha/bohr]; max,rms= 1.04975E-01 2.82755E-02 (free atoms)
  1.44013299449172E-03 -1.04975465441782E-01  6.99423569731505E-04
  6.64570920213774E-04  1.02006783979029E-03  2.45914896850369E-04
  2.17887133646778E-04  2.98693503057579E-03 -1.68644679119737E-04
 -3.42288908418488E-04  3.02839342242527E-03 -4.45882576013608E-05
 -9.33347669080974E-04 -1.67167902067506E-03  2.34317327249339E-04
 -2.08400103345853E-03  8.93830255652152E-02 -4.51675291430104E-04
  4.63351576194643E-06 -1.75491265309292E-03 -6.48097132883292E-04
  1.03241304684377E-03  1.19836352575431E-02  1.33349567203280E-04
 Reduced forces (fred)
 -1.13382713816158E-02  8.25839002444601E-01 -5.50587166210370E-03
 -5.23697891699522E-03 -8.02042666219329E-03 -1.93815072749537E-03
 -1.72294888453560E-03 -2.34936329574101E-02  1.32316039238827E-03
  2.68391676512339E-03 -2.38197832194920E-02  3.47217221749688E-04
  7.33373459683646E-03  1.31553571739532E-02 -1.84691346053572E-03
  1.63858439434715E-02 -7.03165620067440E-01  3.54974237649812E-03
 -4.52976235902572E-05  1.38101503247746E-02  5.09497923231138E-03
 -8.13076713822440E-03 -9.42700428951316E-02 -1.05260717098158E-03
 Cartesian velocities (vel) [bohr*Ha/hbar]; max,rms= 3.36939E-03 7.62502E-04 (free atoms)
  4.22815939672206E-05  6.99037924716793E-05 -2.52439354352246E-05
 -3.99744576652738E-05 -8.19150146698616E-05 -3.95532554081278E-05
  5.72331530342920E-05  1.97940296357330E-05  5.41986358738408E-05
  1.04764232564142E-04 -9.19777919770725E-05  5.91489559559820E-05
  8.26347936877440E-04  5.35842158015553E-04  1.59961584730913E-04
 -7.51175726922714E-04  3.36938606731249E-03 -9.04249465152622E-05
 -4.19075177777618E-04 -3.29316594149612E-04  7.76969618164229E-04
 -2.75134423836941E-04  1.49212093607833E-04 -2.43895181981774E-05
 Kinetic energy of ions (ekin) [Ha]=  2.98651148622924E-02
 Total energy (etotal) [Ha]= -1.16567801401851E+02

 Difference of energy with previous step (new-old):
           Absolute (Ha)=-7.14274E-03
           Relative     =-6.12773E-05

--- Iteration: (  5/800) Internal Cycle: (1/1)
--------------------------------------------------------------------------------

---SELF-CONSISTENT-FIELD CONVERGENCE--------------------------------------------

     iter   Etot(hartree)      deltaE(h)  residm     vres2    diffor    maxfor
 ETOT  1  -116.57370381046    -1.166E+02 1.834E-05 1.040E+01 2.017E-02 1.170E-01
 ETOT  2  -116.57438472765    -6.809E-04 8.203E-06 2.774E+00 2.108E-02 9.592E-02
 ETOT  3  -116.57445898201    -7.425E-05 6.898E-06 2.178E+00 4.939E-03 1.009E-01
 ETOT  4  -116.57474958545    -2.906E-04 3.989E-06 1.312E-01 2.255E-03 1.019E-01
 ETOT  5  -116.57476031834    -1.073E-05 2.073E-06 5.272E-02 5.391E-04 1.014E-01
 ETOT  6  -116.57476784331    -7.525E-06 2.293E-06 7.424E-04 1.882E-04 1.012E-01
 ETOT  7  -116.57476794226    -9.894E-08 1.483E-06 7.150E-05 3.524E-05 1.012E-01
 ETOT  8  -116.57476794204     2.193E-10 1.632E-06 8.274E-05 3.973E-06 1.012E-01

 At SCF step    8, forces are converged : 
  for the second time, max diff in force=  3.973E-06 < toldff=  5.000E-05

 Cartesian components of stress tensor (hartree/bohr^3)
  sigma(1 1)= -1.27000897E-04  sigma(3 2)=  3.67951174E-06
  sigma(2 2)= -9.90165694E-04  sigma(3 1)=  2.50853722E-07
  sigma(3 3)= -1.25126689E-04  sigma(2 1)=  1.44058636E-05


---OUTPUT-----------------------------------------------------------------------

 Cartesian coordinates (xcart) [bohr]
  5.40403650513262E-03  8.73899876380156E-03 -1.77551079722506E-03
  3.92965847112565E+00 -8.38143859676006E-03  3.92960260216268E+00
  7.43952936924973E-03  3.93508115492352E+00  3.93818672591631E+00
  3.94091541472721E+00  3.92437827693110E+00  6.19866581473665E-03
  4.01646442037207E+00  5.86122968190891E-02  2.21027018758575E-02
 -7.39189794618117E-02  4.17758256527725E+00 -2.05711374806172E-02
 -4.20938841557098E-02 -2.06437398690189E-02  4.00705524609620E+00
 -3.33787279886619E-02  2.62940046572165E+00 -1.47794235481078E-02
 Reduced coordinates (xred)
  6.86930807807960E-04  1.11085250341099E-03 -2.25692973215701E-04
  4.99516142316194E-01 -1.06540146062986E-03  4.99509040567006E-01
  9.45671243056123E-04  5.00205443463257E-01  5.00600206227860E-01
  5.00947061843538E-01  4.98844953648242E-01  7.87939628350852E-04
  5.10550427665997E-01  7.45046639917705E-03  2.80957148233563E-03
 -9.39616603733442E-03  5.31030862490432E-01 -2.61488760737788E-03
 -5.35073843772026E-03 -2.62411641574480E-03  5.09354386210690E-01
 -4.24291667146891E-03  3.34234638173391E-01 -1.87867741959092E-03
 Cartesian forces (fcart) [Ha/bohr]; max,rms= 1.01176E-01 2.56472E-02 (free atoms)
  1.99844050299853E-03 -1.01175923760806E-01  9.54272824237318E-04
  8.16018984250789E-04  1.12798311765542E-03  3.12236389384222E-04
  3.39888223471547E-04  2.71731661562681E-03 -2.21010978896733E-04
 -4.36913627434820E-04  2.78235841957043E-03 -5.56251560572049E-05
 -1.24152986148431E-03 -1.46274278044959E-03  3.13038766436442E-04
 -2.30915175165004E-03  6.82031827358773E-02 -3.11396488222672E-04
  2.99911241103458E-05 -1.56625762968344E-03 -9.11891185465985E-04
  8.03256405737955E-04  2.93740832822088E-02 -7.96241714153875E-05
 Reduced forces (fred)
 -1.57336400446704E-02  7.95949833314776E-01 -7.51182729277530E-03
 -6.43161285483223E-03 -8.86782969423168E-03 -2.46097167218817E-03
 -2.68592554073682E-03 -2.13710048965129E-02  1.73404798874658E-03
  3.42512015970024E-03 -2.18826842081347E-02  4.32969315469103E-04
  9.75497966229128E-03  1.15132293134842E-02 -2.46728391620429E-03
  1.81538862225386E-02 -5.36543722529225E-01  2.44510445379438E-03
 -2.47986786575100E-04  1.23275733751054E-02  7.16915413704669E-03
 -6.33121054444079E-03 -2.31077919388669E-01  6.21767886749815E-04
 Cartesian velocities (vel) [bohr*Ha/hbar]; max,rms= 4.01270E-03 8.92059E-04 (free atoms)
  4.49044295079857E-05  6.90786923773665E-05 -1.80536205618377E-05
 -3.22388590967191E-05 -6.78033887689750E-05 -3.93895943580681E-05
  3.99998348408613E-05  8.77602963836003E-06  4.59906120058339E-05
  1.07218563056545E-04 -9.93711035847271E-05  5.93318348759305E-05
  9.32800353566497E-04  3.21497686758558E-04  2.44830296700181E-04
 -7.78244329461108E-04  4.01270391670001E-03  2.66695140411288E-05
 -4.22696410339159E-04 -4.57072405524694E-04  9.24999545260344E-04
 -2.48060468762612E-04  9.56651816064150E-05  2.35727193357996E-07
 Kinetic energy of ions (ekin) [Ha]=  3.88889602755492E-02
 Total energy (etotal) [Ha]= -1.16574767942036E+02

 Difference of energy with previous step (new-old):
           Absolute (Ha)=-6.96654E-03
           Relative     =-5.97621E-05

--- Iteration: (  6/800) Internal Cycle: (1/1)
--------------------------------------------------------------------------------

---SELF-CONSISTENT-FIELD CONVERGENCE--------------------------------------------

     iter   Etot(hartree)      deltaE(h)  residm     vres2    diffor    maxfor
 ETOT  1  -116.57938148011    -1.166E+02 5.432E-05 1.348E+01 1.871E-02 1.161E-01
 ETOT  2  -116.57991262203    -5.311E-04 3.909E-05 6.093E+00 2.518E-02 9.090E-02
 ETOT  3  -116.57979594133     1.167E-04 8.698E-05 6.786E+00 6.833E-03 9.583E-02
 ETOT  4  -116.58073981106    -9.439E-04 1.918E-05 2.082E-01 4.152E-03 9.805E-02
 ETOT  5  -116.58075040732    -1.060E-05 3.285E-05 1.335E-01 4.825E-04 9.756E-02
 ETOT  6  -116.58076975287    -1.935E-05 7.484E-06 9.725E-04 3.157E-04 9.725E-02
 ETOT  7  -116.58076979706    -4.419E-08 1.315E-05 8.009E-04 6.803E-05 9.718E-02
 ETOT  8  -116.58076990330    -1.062E-07 3.715E-06 5.396E-05 2.041E-05 9.718E-02
 ETOT  9  -116.58076991221    -8.918E-09 5.162E-06 8.434E-07 5.557E-06 9.718E-02

 At SCF step    9, forces are converged : 
  for the second time, max diff in force=  5.557E-06 < toldff=  5.000E-05

 Cartesian components of stress tensor (hartree/bohr^3)
  sigma(1 1)= -1.08077927E-04  sigma(3 2)=  3.17426908E-06
  sigma(2 2)= -9.61133347E-04  sigma(3 1)=  3.06978146E-07
  sigma(3 3)= -1.05762430E-04  sigma(2 1)=  1.56825479E-05


---OUTPUT-----------------------------------------------------------------------

 Cartesian coordinates (xcart) [bohr]
  6.39911428449302E-03  1.00566187397914E-02 -2.10558232034251E-03
  3.92912900209568E+00 -1.02147081595863E-02  3.92896842271207E+00
  8.36052530185171E-03  3.93511512178413E+00  3.93939322192805E+00
  3.94365293320762E+00  3.92225101272484E+00  7.64353222850567E-03
  4.04177784132303E+00  6.53860572343365E-02  3.06476764801534E-02
 -9.14854501462116E-02  4.28129563876481E+00 -1.83028691981445E-02
 -5.14850758277470E-02 -2.76665443943697E-02  4.03027935286984E+00
 -3.78666998624580E-02  2.63261066195425E+00 -1.45415042857212E-02
 Reduced coordinates (xred)
  8.13419513455780E-04  1.27834096386661E-03 -2.67649813772593E-04
  4.99448839183043E-01 -1.29843640414401E-03  4.99428427232532E-01
  1.06274307988943E-03  5.00209761140049E-01  5.00753569233306E-01
  5.01295039837274E-01  4.98574547754752E-01  9.71602942216751E-04
  5.13768127747354E-01  8.31150882728132E-03  3.89576072292505E-03
 -1.16291172555782E-02  5.44214286637066E-01 -2.32655806664954E-03
 -6.54449404529709E-03 -3.51681593416863E-03  5.12306504393364E-01
 -4.81340248179941E-03  3.34642700311608E-01 -1.84843445751081E-03
 Cartesian forces (fcart) [Ha/bohr]; max,rms= 9.71814E-02 2.40723E-02 (free atoms)
  2.50681384082183E-03 -9.71813855156306E-02  1.07369319763653E-03
  9.25965153087682E-04  9.97267070894069E-04  3.75733580026573E-04
  4.74778126263685E-04  2.35463878571188E-03 -2.10949878917308E-04
 -4.83440784285630E-04  2.44335108125957E-03 -1.05814836121369E-04
 -1.61278892315228E-03 -1.21731778004508E-03  3.93901147927227E-04
 -2.48946836615003E-03  4.93282562194989E-02 -1.43345466015381E-04
  6.52891257516526E-05 -1.38243266385060E-03 -1.18969363428822E-03
  6.12851827663089E-04  4.46576228021618E-02 -1.93524110248052E-04
 Reduced forces (fred)
 -1.97358552428847E-02  7.64526930464785E-01 -8.45268997634134E-03
 -7.29942944787994E-03 -7.83764624617425E-03 -2.96189059771303E-03
 -3.74997274003526E-03 -1.85159943629478E-02  1.65350704212692E-03
  3.78826824968105E-03 -1.92138877725092E-02  8.26417031342639E-04
  1.26727708809055E-02  9.58433751428411E-03 -3.10481358068114E-03
  1.95695465960277E-02 -3.88054149450738E-01  1.12166786549150E-03
 -5.28551481788342E-04  1.08832847291763E-02  9.35321554708256E-03
 -4.83618886876326E-03 -3.51310603809038E-01  1.51641974170554E-03
 Cartesian velocities (vel) [bohr*Ha/hbar]; max,rms= 4.40108E-03 9.66167E-04 (free atoms)
  4.74202762112999E-05  6.61709188530278E-05 -1.86306591718256E-05
 -9.85151447818300E-06 -7.64321484730173E-05 -2.12145159661524E-05
  3.25400501025577E-05 -1.37452996494794E-05  4.89861925785029E-05
  1.03084555819773E-04 -9.35907258936770E-05  5.54998710043033E-05
  9.97063264010312E-04  1.55602209422720E-04  4.00080396090398E-04
 -7.22237604677763E-04  4.40108485536561E-03  8.07018422070022E-05
 -3.13510448237819E-04 -2.86942424525101E-04  1.00411032802369E-03
 -2.46185462997370E-04  1.67028315109465E-04 -1.02711953038612E-04
 Kinetic energy of ions (ekin) [Ha]=  4.45810730280790E-02
 Total energy (etotal) [Ha]= -1.16580769912214E+02

 Difference of energy with previous step (new-old):
           Absolute (Ha)=-6.00197E-03
           Relative     =-5.14847E-05

--- Iteration: (  7/800) Internal Cycle: (1/1)
--------------------------------------------------------------------------------

---SELF-CONSISTENT-FIELD CONVERGENCE--------------------------------------------

     iter   Etot(hartree)      deltaE(h)  residm     vres2    diffor    maxfor
 ETOT  1  -116.58413406009    -1.166E+02 7.826E-05 1.585E+01 1.605E-02 1.132E-01
 ETOT  2  -116.58479111061    -6.571E-04 3.235E-05 7.051E+00 2.934E-02 8.389E-02
 ETOT  3  -116.58468563055     1.055E-04 5.880E-05 7.671E+00 7.376E-03 8.960E-02
 ETOT  4  -116.58574848227    -1.063E-03 1.149E-05 2.747E-01 4.831E-03 9.243E-02
 ETOT  5  -116.58576335475    -1.487E-05 1.622E-05 1.699E-01 5.423E-04 9.189E-02
 ETOT  6  -116.58578806643    -2.471E-05 2.925E-06 1.114E-03 3.989E-04 9.149E-02
 ETOT  7  -116.58578812660    -6.017E-08 4.826E-06 7.907E-04 6.929E-05 9.142E-02
 ETOT  8  -116.58578823125    -1.047E-07 9.131E-07 6.308E-05 1.424E-05 9.142E-02
 ETOT  9  -116.58578824099    -9.739E-09 1.518E-06 4.445E-07 5.654E-06 9.142E-02

 At SCF step    9, forces are converged : 
  for the second time, max diff in force=  5.654E-06 < toldff=  5.000E-05

 Cartesian components of stress tensor (hartree/bohr^3)
  sigma(1 1)= -8.45052197E-05  sigma(3 2)=  2.78817184E-06
  sigma(2 2)= -9.48388022E-04  sigma(3 1)=  2.83968577E-07
  sigma(3 3)= -8.17995096E-05  sigma(2 1)=  1.69062781E-05


---OUTPUT-----------------------------------------------------------------------

 Cartesian coordinates (xcart) [bohr]
  7.70728264105839E-03  1.15201007142617E-02 -2.49896870414012E-03
  3.92895286795771E+00 -1.23172082871288E-02  3.92847143465883E+00
  9.50113524508971E-03  3.93454471835502E+00  3.94092751678442E+00
  3.94640960848149E+00  3.92010418439801E+00  8.93905649141527E-03
  4.06544760189218E+00  7.09807577382193E-02  4.04901131569204E-02
 -1.11672358451932E-01  4.39357375807514E+00 -1.56043722190404E-02
 -5.85518951826769E-02 -3.26464388803655E-02  4.05678693732915E+00
 -4.33644431718366E-02  2.64217152550560E+00 -1.46219320019201E-02
 Reduced coordinates (xred)
  9.79706537066885E-04  1.46437058338907E-03 -3.17654884268710E-04
  4.99426449999407E-01 -1.56569442685673E-03  4.99365252898946E-01
  1.20773101787951E-03  5.00137254655689E-01  5.00948600189166E-01
  5.01645452935141E-01  4.98301654979995E-01  1.13628271956653E-03
  5.16776894940719E-01  9.02267577312369E-03  5.14687606434599E-03
 -1.41951638054901E-02  5.58486451364996E-01 -1.98354026727628E-03
 -7.44278848196573E-03 -4.14983218763296E-03  5.15675999841512E-01
 -5.51224477293592E-03  3.35858023656746E-01 -1.85865797765286E-03
 Cartesian forces (fcart) [Ha/bohr]; max,rms= 9.14193E-02 2.28771E-02 (free atoms)
  3.13234643845616E-03 -9.14192866299502E-02  1.25812122063272E-03
  9.92612929283850E-04  6.23566286564378E-04  4.24307282415029E-04
  6.32197265526938E-04  1.84756338560646E-03 -2.55610858361999E-04
 -5.22704380159532E-04  1.95173387941334E-03 -1.20949499577453E-04
 -1.98343884376565E-03 -9.34150962335531E-04  4.72639883304599E-04
 -2.76450297987196E-03  3.47196076587428E-02  9.05138861326455E-06
  1.19266769778932E-04 -1.19639376308338E-03 -1.52740609273983E-03
  3.94222800751266E-04  5.44073601450421E-02 -2.60153324286334E-04
 Reduced forces (fred)
 -2.46609831095390E-02  7.19199293121278E-01 -9.90559514340807E-03
 -7.82784960702276E-03 -4.89537775924531E-03 -3.34603934914169E-03
 -4.99248484855576E-03 -1.45244771244451E-02  2.00282899610824E-03
  4.09304542929459E-03 -1.53439790959558E-02  9.43457527496085E-04
  1.55845410441479E-02  7.35907462816779E-03 -3.72626853179943E-03
  2.17291178434292E-02 -2.73126544801728E-01 -7.92503456944124E-05
 -9.57296599446233E-04  9.42212035612379E-03  1.20079529409247E-02
 -3.12035641826901E-03 -4.28008713326801E-01  2.03856425706813E-03
 Cartesian velocities (vel) [bohr*Ha/hbar]; max,rms= 4.62694E-03 1.01492E-03 (free atoms)
  4.72254159290453E-05  4.21653856410403E-05 -1.08846957147648E-05
  4.01473237912822E-06 -8.96273988457741E-05 -5.85710579571050E-06
  4.24644001927381E-05 -3.02334923784159E-05  6.36410227186006E-05
  1.12549187114721E-04 -7.15925977386038E-05  5.02837921912144E-05
  1.02652690723783E-03  1.73240750006651E-04  4.90666154542335E-04
 -7.31890830143692E-04  4.62694379521560E-03  1.72001096421940E-04
 -2.35624030739525E-04 -2.30355549291727E-05  1.06426810405769E-03
 -1.51368138564376E-04  4.15177209751569E-04  6.06393465415221E-06
 Kinetic energy of ions (ekin) [Ha]=  4.87900811014041E-02
 Total energy (etotal) [Ha]= -1.16585788240987E+02

 Difference of energy with previous step (new-old):
           Absolute (Ha)=-5.01833E-03
           Relative     =-4.30450E-05

--- Iteration: (  8/800) Internal Cycle: (1/1)
--------------------------------------------------------------------------------

---SELF-CONSISTENT-FIELD CONVERGENCE--------------------------------------------

     iter   Etot(hartree)      deltaE(h)  residm     vres2    diffor    maxfor
 ETOT  1  -116.58792566085    -1.166E+02 2.357E-05 1.695E+01 1.580E-02 1.072E-01
 ETOT  2  -116.58867360326    -7.479E-04 5.012E-06 7.416E+00 3.263E-02 7.459E-02
 ETOT  3  -116.58864933576     2.427E-05 2.055E-05 7.406E+00 8.663E-03 8.180E-02
 ETOT  4  -116.58968737981    -1.038E-03 6.674E-06 2.317E-01 4.850E-03 8.453E-02
 ETOT  5  -116.58969535106    -7.971E-06 1.293E-06 1.772E-01 6.821E-04 8.385E-02
 ETOT  6  -116.58972076256    -2.541E-05 1.634E-06 1.277E-03 5.981E-04 8.356E-02
 ETOT  7  -116.58972095654    -1.940E-07 1.096E-06 6.000E-05 7.467E-05 8.348E-02
 ETOT  8  -116.58972096535    -8.814E-09 1.552E-06 1.106E-05 8.221E-06 8.348E-02
 ETOT  9  -116.58972096618    -8.292E-10 1.037E-06 5.229E-06 1.805E-06 8.348E-02

 At SCF step    9, forces are converged : 
  for the second time, max diff in force=  1.805E-06 < toldff=  5.000E-05

 Cartesian components of stress tensor (hartree/bohr^3)
  sigma(1 1)= -7.53839133E-05  sigma(3 2)=  2.29192588E-06
  sigma(2 2)= -9.32980223E-04  sigma(3 1)=  2.03805147E-07
  sigma(3 3)= -7.23136818E-05  sigma(2 1)=  1.65981280E-05


---OUTPUT-----------------------------------------------------------------------

 Cartesian coordinates (xcart) [bohr]
  9.03878283605659E-03  1.26222785210986E-02 -2.84889663281489E-03
  3.92920047830351E+00 -1.50359466507313E-02  3.92832988139034E+00
  1.03690064206512E-02  3.93363563869180E+00  3.94271294394982E+00
  3.94877943036556E+00  3.91835824565903E+00  1.03922332450151E-02
  4.09059790068353E+00  7.12466812952497E-02  5.09940400704006E-02
 -1.28254871541493E-01  4.50985747647897E+00 -1.06296180592513E-02
 -6.36449907478688E-02 -3.27345715671441E-02  4.08201770175387E+00
 -4.54776976344405E-02  2.65691129309135E+00 -1.53747580004055E-02
 Reduced coordinates (xred)
  1.14895937310488E-03  1.60447324377623E-03 -3.62135759720017E-04
  4.99457924837651E-01 -1.91128519748793E-03  4.99347259441467E-01
  1.31804993358917E-03  5.00021697548179E-01  5.01175553675481E-01
  5.01946691400062E-01  4.98079721040945E-01  1.32100239721673E-03
  5.19973859848144E-01  9.05647848405515E-03  6.48207633417756E-03
 -1.63030398535662E-02  5.73267785381188E-01 -1.35117742324585E-03
 -8.09019422164153E-03 -4.16103512041581E-03  5.18883193088897E-01
 -5.78086982639763E-03  3.37731660232843E-01 -1.95435299577261E-03
 Cartesian forces (fcart) [Ha/bohr]; max,rms= 8.34764E-02 2.14902E-02 (free atoms)
  3.81062400174269E-03 -8.34763805631004E-02  1.47288465112828E-03
  1.01079851401004E-03  6.73959100471967E-04  4.49300093751703E-04
  7.86527807134926E-04  1.48131136533081E-03 -3.17228322567643E-04
 -5.17096656166432E-04  1.63426845165814E-03 -1.25470223118313E-04
 -2.38979967374386E-03 -6.54560439515407E-04  5.51428201058803E-04
 -3.09944174306457E-03  2.10440373552065E-02  2.11035965567987E-04
  1.74583583751594E-04 -9.33938579976571E-04 -1.87215603714683E-03
  2.23804166335603E-04  6.02313033099249E-02 -3.69794328673983E-04
 Reduced forces (fred)
 -3.00000583960287E-02  6.56716649211876E-01 -1.15968745673070E-02
 -7.97402757643291E-03 -5.28817324236119E-03 -3.54440661670760E-03
 -6.20970564879587E-03 -1.16395569075096E-02  2.48581869409151E-03
  4.04581660845296E-03 -1.28428595820094E-02  9.77271169653313E-04
  1.87782399547787E-02  5.16319683781265E-03 -4.34784127681380E-03
  2.43609443619729E-02 -1.65538150750675E-01 -1.66999942469772E-03
 -1.39558334611257E-03  7.36104508195527E-03  1.47183260105744E-02
 -1.78279821850514E-03 -4.73821624644368E-01  2.89935177879061E-03
 Cartesian velocities (vel) [bohr*Ha/hbar]; max,rms= 4.74139E-03 1.04201E-03 (free atoms)
  5.81664658512431E-05  3.64554723992595E-05 -1.11019133270693E-05
  1.27105627910648E-05 -1.16417391172781E-04 -4.32713690305875E-06
  4.77991946494204E-05 -4.54340240436745E-05  8.38026882923851E-05
  1.01975330498023E-04 -6.21199567388179E-05  5.44481696560722E-05
  9.55739110409880E-04  7.88227530138071E-05  4.13774147519489E-04
 -7.48539251133480E-04  4.74138865320084E-03  2.26228203348725E-04
 -1.72886148567050E-04  8.42213376141265E-05  1.06542362733743E-03
 -5.82544478819297E-05  8.04996930374351E-04  6.93818044512394E-05
 Kinetic energy of ions (ekin) [Ha]=  5.19725665136860E-02
 Total energy (etotal) [Ha]= -1.16589720966182E+02

 Difference of energy with previous step (new-old):
           Absolute (Ha)=-3.93273E-03
           Relative     =-3.37319E-05

--- Iteration: (  9/800) Internal Cycle: (1/1)
--------------------------------------------------------------------------------

---SELF-CONSISTENT-FIELD CONVERGENCE--------------------------------------------

     iter   Etot(hartree)      deltaE(h)  residm     vres2    diffor    maxfor
 ETOT  1  -116.59078718228    -1.166E+02 2.235E-05 1.782E+01 1.507E-02 9.855E-02
 ETOT  2  -116.59154093267    -7.538E-04 9.030E-06 8.418E+00 3.622E-02 6.233E-02
 ETOT  3  -116.59172272151    -1.818E-04 2.262E-05 6.946E+00 1.006E-02 7.113E-02
 ETOT  4  -116.59270050849    -9.778E-04 6.490E-06 2.051E-01 4.823E-03 7.380E-02
 ETOT  5  -116.59270476457    -4.256E-06 9.924E-07 1.771E-01 5.964E-04 7.321E-02
 ETOT  6  -116.59273000421    -2.524E-05 3.016E-06 1.497E-03 3.796E-04 7.283E-02
 ETOT  7  -116.59273016110    -1.569E-07 6.966E-07 5.302E-04 6.721E-05 7.276E-02
 ETOT  8  -116.59273022150    -6.039E-08 2.558E-06 1.268E-04 1.360E-05 7.275E-02
 ETOT  9  -116.59273024060    -1.910E-08 5.623E-07 4.085E-07 4.458E-06 7.275E-02

 At SCF step    9, forces are converged : 
  for the second time, max diff in force=  4.458E-06 < toldff=  5.000E-05

 Cartesian components of stress tensor (hartree/bohr^3)
  sigma(1 1)= -6.80654646E-05  sigma(3 2)=  1.34120603E-06
  sigma(2 2)= -9.27374312E-04  sigma(3 1)=  2.44343297E-07
  sigma(3 3)= -6.46958282E-05  sigma(2 1)=  1.53796487E-05


---OUTPUT-----------------------------------------------------------------------

 Cartesian coordinates (xcart) [bohr]
  1.06918583208395E-02  1.36854700417797E-02 -3.43099406685740E-03
  3.92943920154233E+00 -1.83225557120363E-02  3.92811250025357E+00
  1.14168172704871E-02  3.93268561130454E+00  3.94495203544386E+00
  3.95111368243735E+00  3.91672122187014E+00  1.17218138506949E-02
  4.11301989726022E+00  7.21450078000027E-02  6.26771740915386E-02
 -1.47350831150193E-01  4.62828742254229E+00 -5.11776731023786E-03
 -6.68585167332128E-02 -2.81344378429231E-02  4.10639798043259E+00
 -4.58765649229719E-02  2.67964674902902E+00 -1.16389583555130E-02
 Reduced coordinates (xred)
  1.35908905617622E-03  1.73962018615207E-03 -4.36128720391173E-04
  4.99488269996706E-01 -2.32906050586843E-03  4.99319627170711E-01
  1.45124177136156E-03  4.99900935395674E-01  5.01460174426524E-01
  5.02243408429967E-01  4.97871631759417E-01  1.49001122582809E-03
  5.22824018281837E-01  9.17066871037934E-03  7.96717079703816E-03
 -1.87304111245438E-02  5.88321935818672E-01 -6.50541873515451E-04
 -8.49867961934891E-03 -3.57629192480592E-03  5.21982277358860E-01
 -5.83157159875961E-03  3.40621663862226E-01 -1.47947910003978E-03
 Cartesian forces (fcart) [Ha/bohr]; max,rms= 7.27458E-02 1.96779E-02 (free atoms)
  4.65622144759692E-03 -7.27457622219207E-02  1.49155128899346E-03
  1.01748059854767E-03  7.13983150748052E-04  4.58250001434189E-04
  9.37676486513944E-04  1.14992115709714E-03 -3.75638837606018E-04
 -5.43817809132303E-04  1.37202878602449E-03 -1.17408483088288E-04
 -2.78048953134183E-03 -3.85110305163970E-04  6.26927783804650E-04
 -3.69431467849219E-03  8.33112447559064E-03  3.29286482734312E-04
  2.35006996837024E-04 -6.78931428732122E-04 -2.22559292470722E-03
  1.72236489470771E-04  6.22427463863565E-02 -1.87375311565080E-04
 Reduced forces (fred)
 -3.66555329340110E-02  5.72303274735192E-01 -1.17453484456204E-02
 -8.02981378228431E-03 -5.59939193721189E-03 -3.61643965990192E-03
 -7.40200042788530E-03 -9.02888567007095E-03  2.94370537388399E-03
  4.25281133018079E-03 -1.07761908151437E-02  9.12225279112534E-04
  2.18485509584393E-02  3.04709922432793E-03 -4.94341594801392E-03
  2.90375493238893E-02 -6.55229087111331E-02 -2.60189269976715E-03
 -1.87414881590963E-03  5.35856940399305E-03  1.74971644790535E-02
 -1.38033763522408E-03 -4.89641858604168E-01  1.46264941344925E-03
 Cartesian velocities (vel) [bohr*Ha/hbar]; max,rms= 4.76160E-03 1.04689E-03 (free atoms)
  7.21576112621976E-05  4.44493874596798E-05 -2.63963187939266E-05
  1.54386110059031E-05 -1.50586498150527E-04 -8.50027041465376E-06
  3.41628808231557E-05 -4.41307896407540E-05  9.73397236590259E-05
  7.56137711197569E-05 -6.37259033764186E-05  6.10265021799729E-05
  8.76364907483779E-04 -1.26670747535316E-04  3.96816282842391E-04
 -6.95248077786777E-04  4.76160278347024E-03  2.47463099930162E-04
 -9.66408312819135E-05  2.03515596426869E-04  9.20173620080188E-04
  5.08832685189637E-05  1.08383173118539E-03  1.13255011202131E-04
 Kinetic energy of ions (ekin) [Ha]=  5.33475160138204E-02
 Total energy (etotal) [Ha]= -1.16592730240595E+02

 Difference of energy with previous step (new-old):
           Absolute (Ha)=-3.00927E-03
           Relative     =-2.58105E-05

--- Iteration: ( 10/800) Internal Cycle: (1/1)
--------------------------------------------------------------------------------

---SELF-CONSISTENT-FIELD CONVERGENCE--------------------------------------------

     iter   Etot(hartree)      deltaE(h)  residm     vres2    diffor    maxfor
 ETOT  1  -116.59278937954    -1.166E+02 3.940E-05 1.966E+01 1.426E-02 8.701E-02
 ETOT  2  -116.59373570878    -9.463E-04 5.571E-06 8.951E+00 4.141E-02 5.700E-02
 ETOT  3  -116.59415627156    -4.206E-04 2.150E-05 5.797E+00 1.168E-02 5.689E-02
 ETOT  4  -116.59496027194    -8.040E-04 5.572E-06 2.253E-01 4.385E-03 6.100E-02
 ETOT  5  -116.59496820466    -7.933E-06 5.986E-07 1.720E-01 5.422E-04 6.092E-02
 ETOT  6  -116.59499275731    -2.455E-05 9.496E-07 1.396E-03 4.392E-04 6.048E-02
 ETOT  7  -116.59499280410    -4.679E-08 3.519E-07 1.160E-03 5.835E-05 6.045E-02
 ETOT  8  -116.59499296788    -1.638E-07 7.439E-07 5.420E-05 1.837E-05 6.044E-02
 ETOT  9  -116.59499297636    -8.475E-09 2.666E-07 3.585E-07 5.391E-06 6.045E-02

 At SCF step    9, forces are converged : 
  for the second time, max diff in force=  5.391E-06 < toldff=  5.000E-05

 Cartesian components of stress tensor (hartree/bohr^3)
  sigma(1 1)= -6.27559012E-05  sigma(3 2)=  7.71944896E-07
  sigma(2 2)= -9.28271441E-04  sigma(3 1)=  6.13571335E-07
  sigma(3 3)= -5.90748564E-05  sigma(2 1)=  1.23193457E-05


---OUTPUT-----------------------------------------------------------------------

 Cartesian coordinates (xcart) [bohr]
  1.26935583508314E-02  1.47674069708019E-02 -4.05505732964820E-03
  3.92968091190582E+00 -2.21493512580437E-02  3.92783085662465E+00
  1.23612099848999E-02  3.93174415911187E+00  3.94744607060182E+00
  3.95299916664625E+00  3.91501908151545E+00  1.33011303627686E-02
  4.13402321128917E+00  7.14501326293236E-02  7.21783598521351E-02
 -1.65219024741304E-01  4.74795962174921E+00  6.62923658625790E-04
 -6.98670047598985E-02 -2.08118367479077E-02  4.12872036670830E+00
 -4.38387892736880E-02  2.71430570121761E+00 -1.04059355356644E-02
 Reduced coordinates (xred)
  1.61353393590374E-03  1.87714993968808E-03 -5.15456141814954E-04
  4.99518994862294E-01 -2.81550129012998E-03  4.99283826212419E-01
  1.57128767585969E-03  4.99781263273806E-01  5.01777202186077E-01
  5.02483080606404E-01  4.97655265225302E-01  1.69076508202296E-03
  5.25493841747843E-01  9.08234007642823E-03  9.17490823616560E-03
 -2.10017156662420E-02  6.03533994507634E-01  8.42671369636958E-05
 -8.88110174186584E-03 -2.64548394808761E-03  5.24819773889834E-01
 -5.57254098866576E-03  3.45027315452860E-01 -1.32274415554417E-03
 Cartesian forces (fcart) [Ha/bohr]; max,rms= 6.04456E-02 1.72374E-02 (free atoms)
  5.66395145927973E-03 -5.81351852899952E-02  1.54979416380569E-03
  1.03330691681438E-03  7.55275885989009E-04  4.73953315766599E-04
  1.04671571713607E-03  8.33409638897461E-04 -4.61826391331582E-04
 -6.40999515936138E-04  1.14453260711927E-03 -9.26719166422669E-05
 -3.14289333908100E-03 -1.32759677861652E-04  6.93234940449429E-04
 -4.48264067506408E-03 -4.46932396637587E-03  5.27211171285379E-04
  2.82787577947457E-04 -4.41554414239842E-04 -2.56701421732161E-03
  2.39771858903570E-04  6.04456052164668E-02 -1.22681066011633E-04
 Reduced forces (fred)
 -4.45865632498927E-02  4.57366278397827E-01 -1.22058640757972E-02
 -8.15760728323632E-03 -5.92085093424879E-03 -3.74229955018141E-03
 -8.26309337529218E-03 -6.53552369051616E-03  3.61941379917039E-03
  5.01404403960211E-03 -8.98310626906007E-03  7.15301427765705E-04
  2.46962673415164E-02  1.06526258745923E-03 -5.46737271799031E-03
  3.52359657056212E-02  3.51807098138949E-02 -4.16127536570347E-03
 -2.25332426237823E-03  3.49452912931894E-03  2.01807788340479E-02
 -1.91492261644029E-03 -4.75500486959932E-01  9.51381301949112E-04
 Cartesian velocities (vel) [bohr*Ha/hbar]; max,rms= 4.78270E-03 1.06823E-03 (free atoms)
  8.80245547397498E-05  4.93496655888758E-05 -3.71445145462632E-05
  6.50678130163181E-06 -1.68118793119716E-04 -1.56338537247381E-05
  3.18889479205289E-05 -3.02251591535859E-05  1.05522377787606E-04
  6.68141207296924E-05 -7.14466090043379E-05  6.19077150540708E-05
  7.81273313815619E-04 -7.06846996508498E-05  4.33598643749893E-04
 -7.30026876858980E-04  4.78269715760866E-03  2.25473465366360E-04
 -7.59944119141408E-05  3.92688055155328E-04  8.02682970839813E-04
  1.23810782312028E-04  1.49077939467621E-03  1.29371094138407E-04
 Kinetic energy of ions (ekin) [Ha]=  5.62341326633313E-02
 Total energy (etotal) [Ha]= -1.16594992976357E+02

 Difference of energy with previous step (new-old):
           Absolute (Ha)=-2.26274E-03
           Relative     =-1.94070E-05

--- Iteration: ( 11/800) Internal Cycle: (1/1)
--------------------------------------------------------------------------------

---SELF-CONSISTENT-FIELD CONVERGENCE--------------------------------------------

     iter   Etot(hartree)      deltaE(h)  residm     vres2    diffor    maxfor
 ETOT  1  -116.59387436188    -1.166E+02 4.392E-05 1.985E+01 1.273E-02 7.087E-02
 ETOT  2  -116.59482912885    -9.548E-04 5.557E-06 9.528E+00 4.443E-02 5.271E-02
 ETOT  3  -116.59542587552    -5.967E-04 2.331E-05 5.211E+00 1.296E-02 5.285E-02
 ETOT  4  -116.59612506721    -6.992E-04 5.550E-06 3.182E-01 4.087E-03 5.694E-02
 ETOT  5  -116.59614925885    -2.419E-05 6.262E-07 1.526E-01 4.570E-04 5.704E-02
 ETOT  6  -116.59617105225    -2.179E-05 4.697E-07 1.588E-03 4.915E-04 5.655E-02
 ETOT  7  -116.59617110101    -4.875E-08 1.717E-07 1.318E-03 4.240E-05 5.653E-02
 ETOT  8  -116.59617129206    -1.911E-07 2.898E-07 2.386E-05 2.445E-05 5.653E-02

 At SCF step    8, forces are converged : 
  for the second time, max diff in force=  2.445E-05 < toldff=  5.000E-05

 Cartesian components of stress tensor (hartree/bohr^3)
  sigma(1 1)= -5.98547674E-05  sigma(3 2)=  2.25508048E-07
  sigma(2 2)= -9.40379153E-04  sigma(3 1)=  1.25881722E-06
  sigma(3 3)= -5.58484558E-05  sigma(2 1)=  7.35786105E-06


---OUTPUT-----------------------------------------------------------------------

 Cartesian coordinates (xcart) [bohr]
  1.50002742865307E-02  1.58271697113275E-02 -4.97754178251262E-03
  3.92969141393276E+00 -2.59461733553945E-02  3.92759699932881E+00
  1.30626259373203E-02  3.93112601726299E+00  3.94992607359341E+00
  3.95477823967064E+00  3.91302108997883E+00  1.47325782984412E-02
  4.15070716416813E+00  7.20306324557843E-02  8.30548375966870E-02
 -1.84569637209141E-01  4.86504696181445E+00  7.81520787271828E-03
 -6.99478992974821E-02 -1.17474873518148E-02  4.15157185864055E+00
 -4.11293383747023E-02  2.75777368052027E+00 -7.14384485238804E-03
 Reduced coordinates (xred)
  1.90675072664681E-03  2.01186103476351E-03 -6.32717190994504E-04
  4.99520329821049E-01 -3.29813201772761E-03  4.99254099584742E-01
  1.66044773729671E-03  4.99702688549304E-01  5.02092446255349E-01
  5.02709226389955E-01  4.97401291748450E-01  1.87272271422117E-03
  5.27614612252944E-01  9.15612995818501E-03  1.05574650779031E-02
 -2.34614569802552E-02  6.18417480401689E-01  9.93425387133234E-04
 -8.89138460172379E-03 -1.49327469728077E-03  5.27724527363969E-01
 -5.22813078844069E-03  3.50552721157984E-01 -9.08085485848365E-04
 Cartesian forces (fcart) [Ha/bohr]; max,rms= 5.65260E-02 1.48179E-02 (free atoms)
  6.99124898737017E-03 -4.04122935673618E-02  1.44162779506210E-03
  1.07318382632309E-03  7.81603531961252E-04  4.71764386889171E-04
  1.10964740795245E-03  5.29964161731118E-04 -5.27813255408888E-04
 -8.77767597436267E-04  9.36372002032755E-04 -7.95815894055258E-05
 -3.40936102576333E-03  8.37044923904057E-05  7.67905380969406E-04
 -5.66064713948692E-03 -1.81985745427531E-02  8.14821246952513E-04
  3.23440413705224E-04 -2.46754321897614E-04 -2.90720738500598E-03
  4.50255127335580E-04  5.65259782438970E-02  1.84834199472029E-05
 Reduced forces (fred)
 -5.50309443667446E-02  3.17944335397989E-01 -1.13570220985713E-02
 -8.47394065321657E-03 -6.12516502781321E-03 -3.72717466243177E-03
 -8.76079709347690E-03 -4.14553574434629E-03  4.13643257034099E-03
  6.87405741864084E-03 -7.34271773123446E-03  6.10225478875444E-04
  2.67899254323199E-02 -6.34842212371502E-04 -6.05689510077212E-03
  4.45006354540221E-02  1.43190565208512E-01 -6.42597892924629E-03
 -2.57576178976058E-03  1.96485411156240E-03  2.28549593714212E-02
 -3.57340425106356E-03 -4.44662252715557E-01 -1.61245074482660E-04
 Cartesian velocities (vel) [bohr*Ha/hbar]; max,rms= 4.70878E-03 1.09372E-03 (free atoms)
  1.00179027365452E-04  4.12185993222326E-05 -3.54655898322820E-05
 -5.35011538871402E-06 -1.54358207583803E-04 -1.21197665757433E-05
  3.16694658501723E-05 -1.82529720210895E-05  1.01621802322897E-04
  7.09685182117366E-05 -8.42793722759089E-05  5.94040757298786E-05
  6.31125768832691E-04  1.22095733766582E-04  4.18290257363545E-04
 -7.93504164571134E-04  4.70877878741641E-03  2.69855907388084E-04
 -2.69344712888586E-05  4.51962423217462E-04  8.86781508238040E-04
  1.39005793411820E-04  2.04124552846461E-03  6.65495289228670E-05
 Kinetic energy of ions (ekin) [Ha]=  5.84315184733803E-02
 Total energy (etotal) [Ha]= -1.16596171292058E+02

 Difference of energy with previous step (new-old):
           Absolute (Ha)=-1.17832E-03
           Relative     =-1.01060E-05

--- Iteration: ( 12/800) Internal Cycle: (1/1)
--------------------------------------------------------------------------------

---SELF-CONSISTENT-FIELD CONVERGENCE--------------------------------------------

     iter   Etot(hartree)      deltaE(h)  residm     vres2    diffor    maxfor
 ETOT  1  -116.59372663194    -1.166E+02 4.690E-05 2.061E+01 1.086E-02 6.154E-02
 ETOT  2  -116.59484055880    -1.114E-03 1.224E-05 9.569E+00 4.871E-02 4.552E-02
 ETOT  3  -116.59541156824    -5.710E-04 2.184E-05 5.442E+00 1.495E-02 4.692E-02
 ETOT  4  -116.59613022336    -7.187E-04 5.028E-06 4.268E-01 3.655E-03 5.058E-02
 ETOT  5  -116.59617497661    -4.475E-05 7.198E-07 1.192E-01 5.652E-04 5.086E-02
 ETOT  6  -116.59619195786    -1.698E-05 3.282E-07 1.175E-03 5.476E-04 5.031E-02
 ETOT  7  -116.59619196663    -8.765E-09 1.567E-07 1.151E-03 4.066E-05 5.029E-02
 ETOT  8  -116.59619213264    -1.660E-07 1.501E-07 2.290E-05 2.120E-05 5.029E-02

 At SCF step    8, forces are converged : 
  for the second time, max diff in force=  2.120E-05 < toldff=  5.000E-05

 Cartesian components of stress tensor (hartree/bohr^3)
  sigma(1 1)= -5.76250233E-05  sigma(3 2)=  7.35407239E-08
  sigma(2 2)= -9.62324228E-04  sigma(3 1)=  1.97643158E-06
  sigma(3 3)= -5.34302010E-05  sigma(2 1)= -4.73021225E-07


---OUTPUT-----------------------------------------------------------------------

 Cartesian coordinates (xcart) [bohr]
  1.71346106941358E-02  1.63725399997142E-02 -5.97702679458337E-03
  3.92925713073625E+00 -2.98489047790068E-02  3.92716974007612E+00
  1.41203909167294E-02  3.93072185446293E+00  3.95242479875990E+00
  3.95640053620400E+00  3.91089833322340E+00  1.58962647457594E-02
  4.16324077955290E+00  7.47677858926740E-02  9.66323995626259E-02
 -2.02429173522809E-01  4.98056328740122E+00  1.65649892514148E-02
 -7.17800024291717E-02  6.19205176217279E-04  4.17406921006480E+00
 -3.72191601925589E-02  2.81367667959154E+00 -1.69764857378926E-03
 Reduced coordinates (xred)
  2.17805559870265E-03  2.08118544669154E-03 -7.59766119343086E-04
  4.99465126177122E-01 -3.79422534480510E-03  4.99199788785154E-01
  1.79490488818501E-03  4.99651313641220E-01  5.02410070182478E-01
  5.02915443625369E-01  4.97131458816825E-01  2.02064400796747E-03
  5.29207815136167E-01  9.50406154963728E-03  1.22833685947403E-02
 -2.57316610574060E-02  6.33101267747492E-01  2.10564851606702E-03
 -9.12427127505467E-03  7.87098887088647E-05  5.30584264483199E-01
 -4.73109087118963E-03  3.57658796824653E-01 -2.15795564123131E-04
 Cartesian forces (fcart) [Ha/bohr]; max,rms= 5.02888E-02 1.31842E-02 (free atoms)
  8.66625263649282E-03 -1.83262118278656E-02  1.11985919512128E-03
  1.18370664619209E-03  8.07163672904912E-04  4.66903894838573E-04
  1.07346017964462E-03  1.96763080379950E-04 -5.60403491777841E-04
 -1.27801558767643E-03  6.94999941481878E-04 -9.07024654454241E-05
 -3.57295305873946E-03  2.70162772600258E-04  8.55609803812186E-04
 -7.26913572935148E-03 -3.38432168685780E-02  1.23874962724127E-03
  3.36355588737264E-04 -8.84736265708428E-05 -3.23209234825112E-03
  8.60329324700589E-04  5.02888128556474E-02  2.02075784461081E-04
 Reduced forces (fred)
 -6.82103600244833E-02  1.44196686397904E-01 -8.82715131561490E-03
 -9.34569531108583E-03 -6.32423724871670E-03 -3.69039774620150E-03
 -8.47839408800408E-03 -1.52225858177409E-03  4.39135744102473E-03
  1.00205009143733E-02 -5.44185303727597E-03  6.96252397041549E-04
  2.80746131039207E-02 -2.09968881450713E-03 -6.74831988039322E-03
  5.71522230387047E-02  2.66267877174632E-01 -9.76245400983768E-03
 -2.67964394885207E-03  7.21678594205393E-04  2.54093463660082E-02
 -6.80170859450723E-03 -3.95592902270451E-01 -1.60701356864204E-03
 Cartesian velocities (vel) [bohr*Ha/hbar]; max,rms= 4.52145E-03 1.10317E-03 (free atoms)
  8.96175389924251E-05  1.48556555676145E-05 -3.97342640511438E-05
 -2.34580280847052E-05 -1.39863347718807E-04 -1.08108082164411E-05
  3.84782893526522E-05 -1.06670268040191E-05  9.36267485353945E-05
  6.92406615800028E-05 -9.33833226776220E-05  4.18976602655597E-05
  3.87429416733905E-04  2.03390830184868E-04  5.44562944669738E-04
 -7.58379074401223E-04  4.52144946847168E-03  4.10609158345199E-04
 -5.25494856783859E-07  4.64553621809672E-04  1.01127076342013E-03
  1.40974380933137E-04  2.48405974028088E-03  2.18960384336598E-04
 Kinetic energy of ions (ekin) [Ha]=  5.85214478130404E-02
 Total energy (etotal) [Ha]= -1.16596192132643E+02

 Difference of energy with previous step (new-old):
           Absolute (Ha)=-2.08406E-05
           Relative     =-1.78742E-07

--- Iteration: ( 13/800) Internal Cycle: (1/1)
--------------------------------------------------------------------------------

---SELF-CONSISTENT-FIELD CONVERGENCE--------------------------------------------

     iter   Etot(hartree)      deltaE(h)  residm     vres2    diffor    maxfor
 ETOT  1  -116.59216977900    -1.166E+02 4.422E-05 1.955E+01 7.907E-03 5.491E-02
 ETOT  2  -116.59329853534    -1.129E-03 2.225E-05 9.011E+00 4.968E-02 6.386E-02
 ETOT  3  -116.59381669421    -5.182E-04 2.177E-05 5.286E+00 1.585E-02 4.925E-02
 ETOT  4  -116.59451480737    -6.981E-04 7.517E-06 4.406E-01 3.338E-03 5.130E-02
 ETOT  5  -116.59456336806    -4.856E-05 1.590E-06 1.076E-01 6.150E-04 5.191E-02
 ETOT  6  -116.59457876422    -1.540E-05 2.379E-06 7.592E-04 5.434E-04 5.187E-02
 ETOT  7  -116.59457875468     9.548E-09 6.750E-07 8.439E-04 3.846E-05 5.188E-02
 ETOT  8  -116.59457887571    -1.210E-07 1.096E-06 2.317E-05 1.617E-05 5.189E-02

 At SCF step    8, forces are converged : 
  for the second time, max diff in force=  1.617E-05 < toldff=  5.000E-05

 Cartesian components of stress tensor (hartree/bohr^3)
  sigma(1 1)= -5.68656640E-05  sigma(3 2)=  1.02709773E-06
[...]
                       2.000000  2.000000  2.000000  2.000000  2.000000  2.000000
                       2.000000  2.000000  2.000000  2.000000  2.000000  2.000000
                       2.000000  2.000000  2.000000  2.000000  0.000000  0.000000
                       0.000000  0.000000
                       2.000000  2.000000  2.000000  2.000000  2.000000  2.000000
                       2.000000  2.000000  2.000000  2.000000  2.000000  2.000000
                       2.000000  2.000000  2.000000  2.000000  2.000000  2.000000
                       2.000000  2.000000  2.000000  2.000000  0.000000  0.000000
                       0.000000  0.000000
                       2.000000  2.000000  2.000000  2.000000  2.000000  2.000000
                       2.000000  2.000000  2.000000  2.000000  2.000000  2.000000
                       2.000000  2.000000  2.000000  2.000000  2.000000  2.000000
                       2.000000  2.000000  2.000000  2.000000  0.000000  0.000000
                       0.000000  0.000000
                       2.000000  2.000000  2.000000  2.000000  2.000000  2.000000
                       2.000000  2.000000  2.000000  2.000000  2.000000  2.000000
                       2.000000  2.000000  2.000000  2.000000  2.000000  2.000000
                       2.000000  2.000000  2.000000  0.000000  0.000000  0.000000
                       0.000000  0.000000
                       2.000000  2.000000  2.000000  2.000000  2.000000  2.000000
                       2.000000  2.000000  2.000000  2.000000  2.000000  2.000000
                       2.000000  2.000000  2.000000  2.000000  2.000000  2.000000
                       2.000000  2.000000  2.000000  0.098987  0.000388  0.000000
                       0.000000  0.000000
                       2.000000  2.000000  2.000000  2.000000  2.000000  2.000000
                       2.000000  2.000000  2.000000  2.000000  2.000000  2.000000
                       2.000000  2.000000  2.000000  2.000000  2.000000  2.000000
                       2.000000  2.000000  2.000000  0.555360  0.000001  0.000000
                       0.000000  0.000000
                       2.000000  2.000000  2.000000  2.000000  2.000000  2.000000
                       2.000000  2.000000  2.000000  2.000000  2.000000  2.000000
                       2.000000  2.000000  2.000000  2.000000  2.000000  2.000000
                       2.000000  2.000000  2.000000  2.000000  0.000000  0.000000
                       0.000000  0.000000
                       2.000000  2.000000  2.000000  2.000000  2.000000  2.000000
                       2.000000  2.000000  2.000000  2.000000  2.000000  2.000000
                       2.000000  2.000000  2.000000  2.000000  2.000000  2.000000
                       2.000000  2.000000  2.000000  1.955020  0.000000  0.000000
                       0.000000  0.000000
                       2.000000  2.000000  2.000000  2.000000  2.000000  2.000000
                       2.000000  2.000000  2.000000  2.000000  2.000000  2.000000
                       2.000000  2.000000  2.000000  2.000000  2.000000  2.000000
                       2.000000  2.000000  2.000000  0.073037  0.000071  0.000000
                       0.000000  0.000000
                       2.000000  2.000000  2.000000  2.000000  2.000000  2.000000
                       2.000000  2.000000  2.000000  2.000000  2.000000  2.000000
                       2.000000  2.000000  2.000000  2.000000  2.000000  2.000000
                       2.000000  2.000000  2.000000  0.000000  0.000000  0.000000
                       0.000000  0.000000
                       2.000000  2.000000  2.000000  2.000000  2.000000  2.000000
                       2.000000  2.000000  2.000000  2.000000  2.000000  2.000000
                       2.000000  2.000000  2.000000  2.000000  2.000000  2.000000
                       2.000000  2.000000  2.000000  0.113084  0.000012  0.000000
                       0.000000  0.000000
                       2.000000  2.000000  2.000000  2.000000  2.000000  2.000000
                       2.000000  2.000000  2.000000  2.000000  2.000000  2.000000
                       2.000000  2.000000  2.000000  2.000000  2.000000  2.000000
                       2.000000  2.000000  2.000000  2.000000  0.000000  0.000000
                       0.000000  0.000000
                       2.000000  2.000000  2.000000  2.000000  2.000000  2.000000
                       2.000000  2.000000  2.000000  2.000000  2.000000  2.000000
                       2.000000  2.000000  2.000000  2.000000  2.000000  2.000000
                       2.000000  2.000000  2.000000  2.000000  0.000000  0.000000
                       0.000000  0.000000
                       2.000000  2.000000  2.000000  2.000000  2.000000  2.000000
                       2.000000  2.000000  2.000000  2.000000  2.000000  2.000000
                       2.000000  2.000000  2.000000  2.000000  2.000000  2.000000
                       2.000000  2.000000  2.000000  1.999672  1.951528  1.079689
                       0.000000  0.000000
                       2.000000  2.000000  2.000000  2.000000  2.000000  2.000000
                       2.000000  2.000000  2.000000  2.000000  2.000000  2.000000
                       2.000000  2.000000  2.000000  2.000000  2.000000  2.000000
                       2.000000  2.000000  2.000000  1.999980  1.966372  0.033089
                       0.000000  0.000000
                       2.000000  2.000000  2.000000  2.000000  2.000000  2.000000
                       2.000000  2.000000  2.000000  2.000000  2.000000  2.000000
                       2.000000  2.000000  2.000000  2.000000  2.000000  2.000000
                       2.000000  2.000000  1.999985  1.999880  1.962944  0.982221
                       0.000000  0.000000
                       2.000000  2.000000  2.000000  2.000000  2.000000  2.000000
                       2.000000  2.000000  2.000000  2.000000  2.000000  2.000000
                       2.000000  2.000000  2.000000  2.000000  2.000000  2.000000
                       2.000000  2.000000  2.000000  1.999978  1.996427  0.596351
                       0.000000  0.000000
                       2.000000  2.000000  2.000000  2.000000  2.000000  2.000000
                       2.000000  2.000000  2.000000  2.000000  2.000000  2.000000
                       2.000000  2.000000  2.000000  2.000000  2.000000  2.000000
                       2.000000  2.000000  2.000000  2.000000  0.000000  0.000000
                       0.000000  0.000000
                       2.000000  2.000000  2.000000  2.000000  2.000000  2.000000
                       2.000000  2.000000  2.000000  2.000000  2.000000  2.000000
                       2.000000  2.000000  2.000000  2.000000  2.000000  2.000000
                       2.000000  2.000000  2.000000  2.000000  0.000000  0.000000
                       0.000000  0.000000
                       2.000000  2.000000  2.000000  2.000000  2.000000  2.000000
                       2.000000  2.000000  2.000000  2.000000  2.000000  2.000000
                       2.000000  2.000000  2.000000  2.000000  2.000000  2.000000
                       2.000000  2.000000  2.000000  0.027024  0.000003  0.000000
                       0.000000  0.000000
                       2.000000  2.000000  2.000000  2.000000  2.000000  2.000000
                       2.000000  2.000000  2.000000  2.000000  2.000000  2.000000
                       2.000000  2.000000  2.000000  2.000000  2.000000  2.000000
                       2.000000  2.000000  2.000000  0.000000  0.000000  0.000000
                       0.000000  0.000000
                       2.000000  2.000000  2.000000  2.000000  2.000000  2.000000
                       2.000000  2.000000  2.000000  2.000000  2.000000  2.000000
                       2.000000  2.000000  2.000000  2.000000  2.000000  2.000000
                       2.000000  2.000000  1.999997  1.999677  1.553370  0.488285
                       0.000000  0.000000
                       2.000000  2.000000  2.000000  2.000000  2.000000  2.000000
                       2.000000  2.000000  2.000000  2.000000  2.000000  2.000000
                       2.000000  2.000000  2.000000  2.000000  2.000000  2.000000
                       2.000000  2.000000  2.000000  1.999931  1.312417  0.104580
                       0.000000  0.000000
                       2.000000  2.000000  2.000000  2.000000  2.000000  2.000000
                       2.000000  2.000000  2.000000  2.000000  2.000000  2.000000
                       2.000000  2.000000  2.000000  2.000000  2.000000  2.000000
                       2.000000  2.000000  2.000000  2.000000  0.000000  0.000000
                       0.000000  0.000000
                       2.000000  2.000000  2.000000  2.000000  2.000000  2.000000
                       2.000000  2.000000  2.000000  2.000000  2.000000  2.000000
                       2.000000  2.000000  2.000000  2.000000  2.000000  2.000000
                       2.000000  2.000000  2.000000  0.000000  0.000000  0.000000
                       0.000000  0.000000
                       2.000000  2.000000  2.000000  2.000000  2.000000  2.000000
                       2.000000  2.000000  2.000000  2.000000  2.000000  2.000000
                       2.000000  2.000000  2.000000  2.000000  2.000000  2.000000
                       2.000000  2.000000  2.000000  1.999679  1.960050  0.190910
                       0.000000  0.000000
                       2.000000  2.000000  2.000000  2.000000  2.000000  2.000000
                       2.000000  2.000000  2.000000  2.000000  2.000000  2.000000
                       2.000000  2.000000  2.000000  2.000000  2.000000  2.000000
                       2.000000  2.000000  2.000000  2.000000  2.000000  2.000000
                       0.000000  0.000000
           occopt           3
        optforces           1
           prtden           0
          spgroup           1
           strten     -6.8574776250E-05 -1.1960901747E-04 -1.7457687124E-04
                      -3.4220988037E-06  6.3410006047E-07 -4.3437961226E-06
           toldff      5.00000000E-05
           tolmxf      0.00000000E+00
           tsmear      1.00000000E-03 Hartree
            typat      1  1  1  1  2  2  2  2
              vel     -1.0585105975E-04  1.9552006682E-05 -6.9179969899E-05
                       8.7930677923E-06  4.1053102131E-05 -6.7341580076E-05
                       9.5296124642E-05 -3.3024516778E-05 -1.9521227142E-05
                       8.6099589238E-06  4.9104263614E-05 -5.8859445592E-05
                       1.6916388394E-04 -2.1850494800E-04 -3.5132933791E-04
                       9.7730124010E-04  2.6387185091E-04  1.2860139035E-03
                       2.9496709115E-04  1.1211174301E-04  3.7336443092E-05
                      -5.7636614884E-04 -1.2287630889E-03 -2.4531252061E-04
              wtk        0.01852    0.03704    0.03704    0.03704    0.03704    0.03704
                         0.03704    0.03704    0.03704    0.03704    0.03704    0.03704
                         0.03704    0.03704    0.03704    0.03704    0.03704    0.03704
                         0.03704    0.03704    0.03704    0.03704    0.03704    0.03704
                         0.03704    0.03704    0.03704    0.01852
           xangst     -6.2340531050E-02  1.6695769688E-03  6.6643051277E-02
                       2.1214028136E+00  4.6406850782E-02  2.1198574391E+00
                      -2.8283760544E-02  2.1826990515E+00  2.1927257157E+00
                       2.0020683555E+00  2.1454335343E+00  1.2692864660E-01
                       1.9722437352E+00  2.8080828273E-01  3.5837529548E-01
                      -2.2809021820E+00  1.9502649760E+00  2.5868244353E+00
                       1.3589745523E-01  1.7767053714E-03  2.1970395845E+00
                      -2.3082154581E-01  1.7927972864E+00  3.9915018509E-02
            xcart     -1.1780653066E-01  3.1550432288E-03  1.2593711557E-01
                       4.0088703352E+00  8.7696238668E-02  4.0059500007E+00
                      -5.3448561436E-02  4.1247034378E+00  4.1436510871E+00
                       3.7833608913E+00  4.0542818161E+00  2.3986038049E-01
                       3.7270005268E+00  5.3065075020E-01  6.7723116126E-01
                      -4.3102804598E+00  3.6854666911E+00  4.8883897365E+00
                       2.5680897254E-01  3.3574865707E-03  4.1518031178E+00
                      -4.3618950714E-01  3.3878958832E+00  7.5428453571E-02
             xred     -1.4974905369E-02  4.0105139774E-04  1.6008419716E-02
                       5.0958511016E-01  1.1147453947E-02  5.0921389361E-01
                      -6.7940813221E-03  5.2430916441E-01  5.2671768332E-01
                       4.8091961459E-01  5.1535756288E-01  3.0489706126E-02
                       4.7375540120E-01  6.7453346800E-02  8.6085826444E-02
                      -5.4789867451E-01  4.6847585298E-01  6.2138468299E-01
                       3.2644116078E-02  4.2678485981E-04  5.2775392373E-01
                      -5.5445963441E-02  4.3065032103E-01  9.5880419190E-03
            znucl       46.00000    1.00000

================================================================================

- Total cpu        time (s,m,h):     324909.2     5415.15     90.253
- Total wall clock time (s,m,h):     325263.6     5421.06     90.351
-
- For major independent code sections, cpu and wall times (sec),
-  as well as % of the time and number of calls for node 0-
-<BEGIN_TIMER mpi_nprocs = 1, omp_nthreads = 1, mpi_rank = 0>
- cpu_time =       324909.2, wall_time =       325263.6
-
- routine                        cpu     %       wall     %      number of calls  Gflops 
-                                                                  (-1=no count)
- fourwf%(pot)              132383.431  40.7 132929.538  40.9       37184213      -1.00    
- nonlop(apply)              92982.759  28.6  91392.178  28.1       37184213      -1.00    
- projbd                     40591.065  12.5  43934.675  13.5       62702954      -1.00    
- nonlop(forces)             18401.778   5.7  18514.519   5.7        4667936      -1.00    
- fourwf%(den)                7029.808   2.2   7103.949   2.2        4056461      -1.00    
- vtowfk(ssdiag)              6069.467   1.9   6117.600   1.9             -1      -1.00    
- getghc-other                4877.327   1.5   3740.370   1.1             -1      -1.00    
- nonlop(forstr)              2046.537   0.6   2065.354   0.6         506126      -1.00    
- others (97)                 1368.145   0.4   1199.127   0.4             -1      -1.00    
-<END_TIMER>
-
- subtotal                  305750.316  94.1 306997.310  94.4

- For major independent code sections, cpu and wall times (sec),
- as well as % of the total time and number of calls 

-<BEGIN_TIMER mpi_nprocs = 1, omp_nthreads = 1, mpi_rank = world>
- cpu_time =      324909.2, wall_time =      325263.6
-
- routine                         cpu     %       wall     %      number of calls Gflops 
-                                                                  (-1=no count)
- fourwf%(pot)              132383.431  40.7 132929.538  40.9       37184213      -1.00    
- nonlop(apply)              92982.759  28.6  91392.178  28.1       37184213      -1.00    
- projbd                     40591.065  12.5  43934.675  13.5       62702954      -1.00    
- nonlop(forces)             18401.778   5.7  18514.519   5.7        4667936      -1.00    
- fourwf%(den)                7029.808   2.2   7103.949   2.2        4056461      -1.00    
- vtowfk(ssdiag)              6069.467   1.9   6117.600   1.9             -1      -1.00    
- getghc-other                4877.327   1.5   3740.370   1.1             -1      -1.00    
- nonlop(forstr)              2046.537   0.6   2065.354   0.6         506126      -1.00    
- others (97)                 1368.145   0.4   1199.127   0.4             -1      -1.00    
-<END_TIMER>

- subtotal                  305750.316  94.1 306997.310  94.4

================================================================================

 Suggested references for the acknowledgment of ABINIT usage.

 The users of ABINIT have little formal obligations with respect to the ABINIT group
 (those specified in the GNU General Public License, http://www.gnu.org/copyleft/gpl.txt).
 However, it is common practice in the scientific literature,
 to acknowledge the efforts of people that have made the research possible.
 In this spirit, please find below suggested citations of work written by ABINIT developers,
 corresponding to implementations inside of ABINIT that you have used in the present run.
 Note also that it will be of great value to readers of publications presenting these results,
 to read papers enabling them to understand the theoretical formalism and details
 of the ABINIT implementation.
 For information on why they are suggested, see also http://www.abinit.org/about/?text=acknowledgments.

 [1] Ab initio pseudopotentials for electronic structure calculations of poly-atomic systems, 
 using density-functional theory.
 M. Fuchs, M. Scheffler, Comput. Phys. Commun. 119, 67 (1999).
 Comment : Some pseudopotential generated using the FHI code were used.

 [2] ABINIT : First-principles approach of materials and nanosystem properties.
 X. Gonze, B. Amadon, P.-M. Anglade, J.-M. Beuken, F. Bottin, P. Boulanger, F. Bruneval,
 D. Caliste, R. Caracas, M. Cote, T. Deutsch, L. Genovese, Ph. Ghosez, M. Giantomassi
 S. Goedecker, D.R. Hamann, P. Hermet, F. Jollet, G. Jomard, S. Leroux, M. Mancini, S. Mazevet,
 M.J.T. Oliveira, G. Onida, Y. Pouillon, T. Rangel, G.-M. Rignanese, D. Sangalli, R. Shaltaf,
 M. Torrent, M.J. Verstraete, G. Zerah, J.W. Zwanziger
 Computer Phys. Comm. 180, 2582-2615 (2009).
 Comment : the third generic paper describing the ABINIT project.
 Note that a version of this paper, that is not formatted for Computer Phys. Comm. 
 is available at http://www.abinit.org/about/ABINIT_CPC_v10.pdf .
 The licence allows the authors to put it on the Web.

 [3] A brief introduction to the ABINIT software package.
 X. Gonze, G.-M. Rignanese, M. Verstraete, J.-M. Beuken, Y. Pouillon, R. Caracas, F. Jollet,
 M. Torrent, G. Zerah, M. Mikami, Ph. Ghosez, M. Veithen, J.-Y. Raty, V. Olevano, F. Bruneval,
 L. Reining, R. Godby, G. Onida, D.R. Hamann, and D.C. Allan.
 Z. Kristallogr. 220, 558-562 (2005).
 Comment : the second generic paper describing the ABINIT project. Note that this paper
 should be cited especially if you are using the GW part of ABINIT, as several authors
 of this part are not in the list of authors of the first or third paper.
 The .pdf of the latter paper is available at http://www.abinit.org/about/zfk_0505-06_558-562.pdf.
 Note that it should not redistributed (Copyright by Oldenburg Wissenshaftverlag,
 the licence allows the authors to put it on the Web).


 And optionally :

 [4] First-principles computation of material properties : the ABINIT software project. 
 X. Gonze, J.-M. Beuken, R. Caracas, F. Detraux, M. Fuchs, G.-M. Rignanese, L. Sindic,
 M. Verstraete, G. Zerah, F. Jollet, M. Torrent, A. Roy, M. Mikami, Ph. Ghosez, J.-Y. Raty, D.C. Allan.
 Computational Materials Science 25, 478-492 (2002). http://dx.doi.org/10.1016/S0927-0256(02)00325-7
 Comment : the original paper describing the ABINIT project.

 [5] Fast radix 2, 3, 4 and 5 kernels for Fast Fourier Transformations
 on computers with overlapping multiply-add instructions.
 S. Goedecker, SIAM J. on Scientific Computing 18, 1605 (1997).
-
- Proc.   0 individual time (sec): cpu=     324909.2  wall=     325263.6

================================================================================

 Calculation completed.
.Delivered    1 WARNINGs and   3 COMMENTs to log file.
+Overall time at end (sec) : cpu=     324909.2  wall=     325263.6
